chitosan Film  in water:acetic acid 2%
45669
    1CHTO  H203    1   5.244   6.218   3.874
    1CHTO   O82    2   5.294   6.259   3.806
    1CHTO  C123    3   5.425   6.199   3.796
    1CHTO  H227    4   5.467   6.190   3.898
    1CHTO   O77    5   5.398   6.066   3.742
    1CHTO  C118    6   5.513   5.980   3.738
    1CHTO  H222    7   5.555   5.969   3.839
    1CHTO  C125    8   5.467   5.839   3.686
    1CHTO   O84    9   5.370   5.780   3.773
    1CHTO  H205   10   5.289   5.828   3.768
    1CHTO  C114   11   5.620   6.040   3.644
    1CHTO  H218   12   5.581   6.040   3.542
    1CHTO  C116   13   5.653   6.189   3.680
    1CHTO  H220   14   5.713   6.190   3.775
    1CHTO   O79   15   5.739   6.243   3.578
    1CHTO  H201   16   5.822   6.200   3.578
    1CHTO  C120   17   5.522   6.276   3.699
    1CHTO  H224   18   5.476   6.285   3.599
    1CHTO   N21   19   5.553   6.413   3.747
    1CHTO  H211   20   5.470   6.453   3.804
    1CHTO  H212   21   5.643   6.414   3.807
    1CHTO   O75   22   5.733   5.952   3.656
    1CHTO  C112   23   5.811   5.927   3.517
    1CHTO  H216   24   5.799   6.015   3.452
    1CHTO   O73   25   5.754   5.809   3.457
    1CHTO  C113   26   5.808   5.779   3.327
    1CHTO  H217   27   5.791   5.866   3.260
    1CHTO  C124   28   5.730   5.661   3.268
    1CHTO   O83   29   5.736   5.542   3.347
    1CHTO  H204   30   5.684   5.475   3.306
    1CHTO  C109   31   5.961   5.750   3.335
    1CHTO  H213   32   5.972   5.655   3.391
    1CHTO  C110   33   6.035   5.865   3.409
    1CHTO  H214   34   6.038   5.952   3.343
    1CHTO   O78   35   6.172   5.825   3.430
    1CHTO  H200   36   6.177   5.750   3.486
    1CHTO  C111   37   5.965   5.903   3.543
    1CHTO  H215   38   5.975   5.818   3.612
    1CHTO   N19   39   6.026   6.021   3.609
    1CHTO  H207   40   6.019   6.108   3.546
    1CHTO  H208   41   5.977   6.040   3.703
    1CHTO   O74   42   6.014   5.733   3.201
    1CHTO  C115   43   6.075   5.595   3.168
    1CHTO  H219   44   6.091   5.536   3.258
    1CHTO   O76   45   5.978   5.510   3.080
    1CHTO  C122   46   5.978   5.548   2.942
    1CHTO  H226   47   5.954   5.654   2.937
    1CHTO  C126   48   5.863   5.473   2.867
    1CHTO   O85   49   5.733   5.505   2.919
    1CHTO  H206   50   5.712   5.594   2.900
    1CHTO  C121   51   6.118   5.519   2.875
    1CHTO  H225   52   6.115   5.419   2.827
    1CHTO   O81   53   6.140   5.616   2.773
    1CHTO  H202   54   6.215   5.594   2.722
    1CHTO  C119   55   6.235   5.519   2.979
    1CHTO  H223   56   6.235   5.420   3.024
    1CHTO  C117   57   6.214   5.622   3.096
    1CHTO  H221   58   6.211   5.727   3.065
    1CHTO   N20   59   6.326   5.616   3.197
    1CHTO  H209   60   6.330   5.518   3.241
    1CHTO  H210   61   6.420   5.639   3.149
    1CHTO   O80   62   6.375   5.522   2.910
    1CHTO  C103   63   6.460   5.399   2.905
    1CHTO  H190   64   6.478   5.360   3.005
    1CHTO  C101   65   6.406   5.282   2.813
    1CHTO  H188   66   6.368   5.325   2.720
    1CHTO   O68   67   6.287   5.209   2.885
    1CHTO  H168   68   6.317   5.168   2.963
    1CHTO   C99   69   6.523   5.179   2.775
    1CHTO  H186   70   6.558   5.127   2.867
    1CHTO   N17   71   6.482   5.073   2.678
    1CHTO  H174   72   6.563   5.004   2.662
    1CHTO  H175   73   6.394   5.022   2.714
    1CHTO   C97   74   6.646   5.259   2.724
    1CHTO  H184   75   6.617   5.313   2.632
    1CHTO   O64   76   6.690   5.348   2.828
    1CHTO  C104   77   6.597   5.455   2.851
    1CHTO  H191   78   6.579   5.512   2.759
    1CHTO  C108   79   6.660   5.553   2.951
    1CHTO   O71   80   6.782   5.608   2.901
    1CHTO  H171   81   6.818   5.668   2.964
    1CHTO   O62   82   6.763   5.179   2.698
    1CHTO   C91   83   6.863   5.242   2.617
    1CHTO  H178   84   6.844   5.350   2.616
    1CHTO   C92   85   6.847   5.194   2.468
    1CHTO  H179   86   6.742   5.207   2.436
    1CHTO   O66   87   6.923   5.283   2.385
    1CHTO  H166   88   6.907   5.265   2.294
    1CHTO   C93   89   6.899   5.047   2.445
    1CHTO  H180   90   6.926   5.039   2.339
    1CHTO   N16   91   6.795   4.943   2.467
    1CHTO  H172   92   6.712   4.960   2.400
    1CHTO  H173   93   6.837   4.845   2.449
    1CHTO   C94   94   7.027   5.019   2.533
    1CHTO  H181   95   7.004   4.963   2.624
    1CHTO   O61   96   7.091   5.141   2.576
    1CHTO   C95   97   7.012   5.217   2.668
    1CHTO  H182   98   7.007   5.163   2.763
    1CHTO  C106   99   7.084   5.353   2.698
    1CHTO   O69  100   7.214   5.333   2.754
    1CHTO  H169  101   7.271   5.295   2.689
    1CHTO   O63  102   7.126   4.943   2.449
    1CHTO   C96  103   7.145   4.797   2.493
    1CHTO  H183  104   7.047   4.758   2.523
    1CHTO   C98  105   7.243   4.778   2.613
    1CHTO  H185  106   7.218   4.848   2.695
    1CHTO   O67  107   7.224   4.647   2.668
    1CHTO  H167  108   7.274   4.637   2.746
    1CHTO  C102  109   7.395   4.793   2.568
    1CHTO  H189  110   7.455   4.763   2.656
    1CHTO   N18  111   7.438   4.932   2.539
    1CHTO  H176  112   7.379   4.973   2.458
    1CHTO  H177  113   7.543   4.934   2.513
    1CHTO  C105  114   7.424   4.693   2.451
    1CHTO  H192  115   7.484   4.741   2.374
    1CHTO   O65  116   7.308   4.633   2.389
    1CHTO  C100  117   7.194   4.718   2.365
    1CHTO  H187  118   7.223   4.791   2.288
    1CHTO  C107  119   7.080   4.632   2.307
    1CHTO   O70  120   7.115   4.583   2.178
    1CHTO  H170  121   7.044   4.533   2.142
    1CHTO   O57  122   7.504   4.580   2.519
    1CHTO   C85  123   7.645   4.553   2.506
    1CHTO  H157  124   7.661   4.533   2.398
    1CHTO   C83  125   7.671   4.416   2.579
    1CHTO  H155  126   7.635   4.336   2.514
    1CHTO   O56  127   7.592   4.408   2.699
    1CHTO  H135  128   7.501   4.410   2.679
    1CHTO   C81  129   7.823   4.395   2.605
    1CHTO  H153  130   7.875   4.397   2.509
    1CHTO   N14  131   7.856   4.261   2.661
    1CHTO  H141  132   7.818   4.184   2.597
    1CHTO  H142  133   7.962   4.250   2.669
    1CHTO   C79  134   7.877   4.513   2.693
    1CHTO  H151  135   7.982   4.494   2.713
    1CHTO   O52  136   7.871   4.635   2.614
    1CHTO   C86  137   7.740   4.670   2.560
    1CHTO  H158  138   7.691   4.725   2.643
    1CHTO   C90  139   7.764   4.775   2.449
    1CHTO   O60  140   7.816   4.897   2.502
    1CHTO  H138  141   7.827   4.959   2.433
    1CHTO   O50  142   7.808   4.533   2.818
    1CHTO   C73  143   7.792   4.573   2.955
    1CHTO  H145  144   7.859   4.514   3.019
    1CHTO   C74  145   7.644   4.545   2.999
    1CHTO  H146  146   7.622   4.440   2.974
    1CHTO   O54  147   7.638   4.555   3.143
    1CHTO  H133  148   7.685   4.485   3.183
    1CHTO   C75  149   7.546   4.645   2.926
    1CHTO  H147  150   7.556   4.631   2.817
    1CHTO   N13  151   7.403   4.621   2.957
    1CHTO  H139  152   7.342   4.692   2.904
    1CHTO  H140  153   7.375   4.521   2.926
    1CHTO   C76  154   7.593   4.793   2.959
    1CHTO  H148  155   7.593   4.804   3.068
    1CHTO   O49  156   7.730   4.811   2.909
    1CHTO   C77  157   7.825   4.725   2.975
    1CHTO  H149  158   7.825   4.746   3.082
    1CHTO   C88  159   7.966   4.759   2.925
    1CHTO   O58  160   8.001   4.899   2.954
    1CHTO  H136  161   8.009   4.912   3.046
    1CHTO   O51  162   7.503   4.909   2.886
    1CHTO   C78  163   7.467   5.028   2.991
    1CHTO  H150  164   7.506   5.005   3.093
    1CHTO   C80  165   7.314   5.048   3.001
    1CHTO  H152  166   7.275   5.076   2.900
    1CHTO   O55  167   7.257   4.922   3.039
    1CHTO  H134  168   7.262   4.861   2.968
    1CHTO   C84  169   7.279   5.162   3.105
    1CHTO  H156  170   7.312   5.128   3.203
    1CHTO   N15  171   7.131   5.187   3.116
    1CHTO  H143  172   7.112   5.263   3.189
    1CHTO  H144  173   7.092   5.220   3.022
    1CHTO   C87  174   7.357   5.292   3.071
    1CHTO  H159  175   7.315   5.342   2.984
    1CHTO   O53  176   7.508   5.260   3.046
    1CHTO   C82  177   7.532   5.160   2.946
    1CHTO  H154  178   7.490   5.193   2.851
    1CHTO   C89  179   7.685   5.146   2.925
    1CHTO   O59  180   7.753   5.107   3.045
    1CHTO  H137  181   7.845   5.100   3.028
    1CHTO   O45  182   7.358   5.396   3.198
    1CHTO   C67  183   7.261   5.502   3.197
    1CHTO  H124  184   7.181   5.480   3.126
    1CHTO   C65  185   7.199   5.518   3.341
    1CHTO  H122  186   7.228   5.429   3.398
    1CHTO   O44  187   7.055   5.522   3.330
    1CHTO  H102  188   7.023   5.440   3.297
    1CHTO   C63  189   7.263   5.640   3.416
    1CHTO  H120  190   7.371   5.629   3.414
    1CHTO   N11  191   7.235   5.649   3.563
    1CHTO  H108  192   7.325   5.633   3.620
    1CHTO  H109  193   7.195   5.745   3.588
    1CHTO   C61  194   7.230   5.771   3.333
    1CHTO  H118  195   7.299   5.849   3.368
    1CHTO   O40  196   7.253   5.756   3.190
    1CHTO   C68  197   7.328   5.637   3.147
    1CHTO  H125  198   7.432   5.645   3.187
    1CHTO   C72  199   7.339   5.641   2.992
    1CHTO   O48  200   7.413   5.754   2.945
    1CHTO  H105  201   7.503   5.746   2.970
    1CHTO   O38  202   7.092   5.811   3.346
    1CHTO   C55  203   7.066   5.953   3.335
    1CHTO  H112  204   7.145   6.002   3.278
    1CHTO   C56  205   7.052   6.013   3.481
    1CHTO  H113  206   6.983   5.947   3.537
    1CHTO   O42  207   7.178   6.005   3.550
    1CHTO  H100  208   7.243   6.056   3.505
    1CHTO   C57  209   6.997   6.161   3.479
    1CHTO  H114  210   7.076   6.224   3.439
    1CHTO   N10  211   6.964   6.214   3.615
    1CHTO  H106  212   6.932   6.133   3.680
    1CHTO  H107  213   7.050   6.261   3.658
    1CHTO   C58  214   6.874   6.171   3.386
    1CHTO  H115  215   6.789   6.112   3.430
    1CHTO   O37  216   6.906   6.118   3.256
    1CHTO   C59  217   6.934   5.977   3.256
    1CHTO  H116  218   6.851   5.923   3.300
    1CHTO   C70  219   6.947   5.934   3.109
    1CHTO   O46  220   6.957   5.792   3.091
    1CHTO  H103  221   7.038   5.761   3.126
    1CHTO   O39  222   6.828   6.327   3.365
    1CHTO   C60  223   6.717   6.349   3.277
    1CHTO  H117  224   6.727   6.285   3.190
    1CHTO   C62  225   6.580   6.317   3.344
    1CHTO  H119  226   6.584   6.210   3.372
    1CHTO   O43  227   6.564   6.395   3.464
    1CHTO  H101  228   6.484   6.372   3.507
    1CHTO   C66  229   6.462   6.339   3.236
    1CHTO  H123  230   6.485   6.279   3.148
    1CHTO   N12  231   6.331   6.291   3.286
    1CHTO  H110  232   6.259   6.371   3.291
    1CHTO  H111  233   6.295   6.209   3.225
    1CHTO   C69  234   6.458   6.486   3.189
    1CHTO  H126  235   6.425   6.553   3.272
    1CHTO   O41  236   6.605   6.533   3.139
    1CHTO   C64  237   6.723   6.496   3.226
    1CHTO  H121  238   6.726   6.563   3.314
    1CHTO   C71  239   6.853   6.520   3.146
    1CHTO   O47  240   6.857   6.443   3.024
    1CHTO  H104  241   6.937   6.460   2.979
    1CHTO   O34  242   6.352   6.502   3.063
    1CHTO   C49  243   6.397   6.553   2.921
    1CHTO   H91  244   6.448   6.647   2.938
    1CHTO   C47  245   6.273   6.576   2.832
    1CHTO   H89  246   6.310   6.629   2.741
    1CHTO   O33  247   6.183   6.662   2.902
    1CHTO   H70  248   6.110   6.685   2.847
    1CHTO   C45  249   6.209   6.434   2.789
    1CHTO   H87  250   6.186   6.378   2.881
    1CHTO    N8  251   6.084   6.450   2.711
    1CHTO   H75  252   6.040   6.353   2.692
    1CHTO   H76  253   6.105   6.499   2.617
    1CHTO   C43  254   6.320   6.346   2.712
    1CHTO   H85  255   6.274   6.249   2.693
    1CHTO   O29  256   6.438   6.334   2.793
    1CHTO   C50  257   6.495   6.453   2.853
    1CHTO   H92  258   6.562   6.415   2.931
    1CHTO   C54  259   6.591   6.526   2.756
    1CHTO   O36  260   6.705   6.445   2.728
    1CHTO   H72  261   6.763   6.491   2.671
    1CHTO   O27  262   6.354   6.398   2.582
    1CHTO   C37  263   6.438   6.373   2.468
    1CHTO   H79  264   6.541   6.406   2.489
    1CHTO   C38  265   6.445   6.221   2.434
    1CHTO   H80  266   6.342   6.182   2.429
    1CHTO   O31  267   6.512   6.157   2.545
    1CHTO   H68  268   6.508   6.064   2.535
    1CHTO   C39  269   6.519   6.193   2.298
    1CHTO   H81  270   6.624   6.219   2.314
    1CHTO    N7  271   6.515   6.048   2.258
    1CHTO   H73  272   6.413   6.016   2.243
    1CHTO   H74  273   6.573   6.033   2.168
    1CHTO   C40  274   6.463   6.286   2.184
    1CHTO   H82  275   6.362   6.254   2.159
    1CHTO   O26  276   6.466   6.423   2.227
    1CHTO   C41  277   6.385   6.453   2.344
    1CHTO   H83  278   6.280   6.426   2.325
    1CHTO   C52  279   6.394   6.606   2.365
    1CHTO   O35  280   6.305   6.656   2.469
    1CHTO   H71  281   6.317   6.749   2.479
    1CHTO   O28  282   6.537   6.281   2.060
    1CHTO   C42  283   6.683   6.283   2.040
    1CHTO   H84  284   6.723   6.214   2.114
    1CHTO   C44  285   6.756   6.420   2.065
    1CHTO   H86  286   6.704   6.497   2.008
    1CHTO   O32  287   6.741   6.451   2.205
    1CHTO   H69  288   6.776   6.536   2.223
    1CHTO   C48  289   6.909   6.420   2.023
    1CHTO   H90  290   6.964   6.363   2.099
    1CHTO    N9  291   6.965   6.560   2.027
    1CHTO   H77  292   6.998   6.591   1.929
    1CHTO   H78  293   7.047   6.565   2.098
    1CHTO   C51  294   6.932   6.350   1.884
    1CHTO   H93  295   6.890   6.413   1.806
    1CHTO   O30  296   6.872   6.220   1.886
    1CHTO   C46  297   6.721   6.228   1.900
    1CHTO   H88  298   6.683   6.295   1.823
    1CHTO   C53  299   6.664   6.086   1.879
    1CHTO   O72  300   6.688   6.040   1.745
    1CHTO  H199  301   6.779   6.024   1.733
    1CHTO   O22  302   7.073   6.325   1.861
    1CHTO   C31  303   7.136   6.348   1.729
    1CHTO   H59  304   7.056   6.384   1.661
    1CHTO   C29  305   7.246   6.456   1.731
    1CHTO   H57  306   7.323   6.423   1.802
    1CHTO   O21  307   7.190   6.578   1.783
    1CHTO   H37  308   7.164   6.567   1.873
    1CHTO   C27  309   7.313   6.477   1.589
    1CHTO   H55  310   7.237   6.519   1.521
    1CHTO    N5  311   7.428   6.570   1.593
    1CHTO   H43  312   7.397   6.665   1.634
    1CHTO   H44  313   7.468   6.585   1.494
    1CHTO   C25  314   7.355   6.338   1.529
    1CHTO   H53  315   7.436   6.296   1.592
    1CHTO   O17  316   7.243   6.245   1.532
    1CHTO   C32  317   7.193   6.217   1.664
    1CHTO   H60  318   7.275   6.180   1.726
    1CHTO   C36  319   7.089   6.103   1.656
    1CHTO   O25  320   6.976   6.137   1.574
    1CHTO   H40  321   7.003   6.144   1.485
    1CHTO   O15  322   7.409   6.350   1.375
    1CHTO   C19  323   7.391   6.436   1.259
    1CHTO   H47  324   7.346   6.526   1.301
    1CHTO   C20  325   7.523   6.476   1.186
    1CHTO   H48  326   7.578   6.387   1.150
    1CHTO   O19  327   7.607   6.542   1.283
    1CHTO   H35  328   7.567   6.622   1.312
    1CHTO   C21  329   7.497   6.571   1.062
    1CHTO   H49  330   7.461   6.667   1.099
    1CHTO    N4  331   7.620   6.600   0.984
    1CHTO   H41  332   7.598   6.667   0.902
    1CHTO   H42  333   7.661   6.509   0.943
    1CHTO   C22  334   7.384   6.512   0.973
    1CHTO   H50  335   7.421   6.423   0.922
    1CHTO   O14  336   7.268   6.480   1.052
    1CHTO   C23  337   7.289   6.381   1.155
    1CHTO   H51  338   7.325   6.290   1.106
    1CHTO   C34  339   7.153   6.348   1.217
    1CHTO   O23  340   7.090   6.462   1.277
    1CHTO   H38  341   7.007   6.437   1.313
    1CHTO   O16  342   7.337   6.610   0.878
    1CHTO   C24  343   7.251   6.548   0.759
    1CHTO   H52  344   7.223   6.444   0.778
    1CHTO   C26  345   7.332   6.556   0.628
    1CHTO   H54  346   7.362   6.662   0.611
    1CHTO   O20  347   7.452   6.477   0.642
    1CHTO   H36  348   7.431   6.386   0.653
    1CHTO   C30  349   7.246   6.509   0.506
    1CHTO   H58  350   7.230   6.401   0.512
    1CHTO    N6  351   7.317   6.533   0.377
    1CHTO   H45  352   7.257   6.496   0.294
    1CHTO   H46  353   7.335   6.639   0.363
    1CHTO   C33  354   7.103   6.573   0.506
    1CHTO   H61  355   7.110   6.680   0.478
    1CHTO   O18  356   7.044   6.565   0.637
    1CHTO   C28  357   7.120   6.628   0.742
    1CHTO   H56  358   7.144   6.731   0.715
    1CHTO   C35  359   7.035   6.630   0.871
    1CHTO   O24  360   7.001   6.500   0.919
    1CHTO   H39  361   6.950   6.507   0.997
    1CHTO    O9  362   7.019   6.511   0.407
    1CHTO   C13  363   6.895   6.601   0.358
    1CHTO   H26  364   6.934   6.702   0.337
    1CHTO   C11  365   6.781   6.604   0.470
    1CHTO   H24  366   6.810   6.679   0.545
    1CHTO    O8  367   6.771   6.477   0.537
    1CHTO    H3  368   6.749   6.409   0.476
    1CHTO    C9  369   6.649   6.647   0.402
    1CHTO   H22  370   6.673   6.737   0.344
    1CHTO    N2  371   6.543   6.691   0.496
    1CHTO   H10  372   6.458   6.728   0.441
    1CHTO   H11  373   6.582   6.768   0.561
    1CHTO    C7  374   6.606   6.532   0.302
    1CHTO   H20  375   6.541   6.584   0.229
    1CHTO    O4  376   6.717   6.471   0.234
    1CHTO   C14  377   6.837   6.549   0.218
    1CHTO   H27  378   6.812   6.637   0.155
    1CHTO   C18  379   6.938   6.463   0.138
    1CHTO   O13  380   7.057   6.538   0.109
    1CHTO    H7  381   7.116   6.485   0.059
    1CHTO    O2  382   6.522   6.411   0.376
    1CHTO    C1  383   6.423   6.349   0.292
    1CHTO   H14  384   6.431   6.387   0.188
    1CHTO    C2  385   6.276   6.376   0.344
    1CHTO   H15  386   6.277   6.351   0.452
    1CHTO    O6  387   6.246   6.516   0.329
    1CHTO    H1  388   6.300   6.567   0.386
    1CHTO    C3  389   6.167   6.286   0.268
    1CHTO   H16  390   6.157   6.323   0.164
    1CHTO    N1  391   6.031   6.294   0.331
    1CHTO    H8  392   6.032   6.361   0.417
    1CHTO    H9  393   5.958   6.329   0.259
    1CHTO    C4  394   6.217   6.137   0.255
    1CHTO   H17  395   6.214   6.090   0.354
    1CHTO    O1  396   6.350   6.132   0.203
    1CHTO    C5  397   6.449   6.196   0.286
    1CHTO   H18  398   6.441   6.156   0.387
    1CHTO   C16  399   6.589   6.162   0.230
    1CHTO   O11  400   6.616   6.022   0.239
    1CHTO    H5  401   6.701   6.004   0.203
    1CHTO    O3  402   6.142   6.060   0.159
    1CHTO    C6  403   6.061   5.948   0.210
    1CHTO   H19  404   6.041   5.956   0.317
    1CHTO    C8  405   5.923   5.946   0.136
    1CHTO   H21  406   5.942   5.942   0.028
    1CHTO    O7  407   5.853   6.068   0.168
    1CHTO    H2  408   5.897   6.141   0.129
    1CHTO   C12  409   5.838   5.818   0.177
    1CHTO   H25  410   5.811   5.833   0.284
    1CHTO    N3  411   5.710   5.811   0.099
    1CHTO   H12  412   5.705   5.720   0.041
    1CHTO   H13  413   5.625   5.816   0.167
    1CHTO   C15  414   5.926   5.689   0.166
    1CHTO   H28  415   5.947   5.662   0.062
    1CHTO   O10  416   5.861   5.569   0.238
    1CHTO    H4  417   5.910   5.491   0.221
    1CHTO    O5  418   6.050   5.704   0.237
    1CHTO   C10  419   6.132   5.811   0.187
    1CHTO   H23  420   6.149   5.797   0.081
    1CHTO   C17  421   6.269   5.802   0.257
    1CHTO   O12  422   6.339   5.683   0.219
    1CHTO    H6  423   6.367   5.689   0.129
    2CHTO  H203  424   5.742   3.836   5.322
    2CHTO   O82  425   5.747   3.929   5.307
    2CHTO  C123  426   5.769   3.956   5.168
    2CHTO  H227  427   5.847   3.888   5.130
    2CHTO   O77  428   5.640   3.921   5.107
    2CHTO  C118  429   5.636   3.935   4.964
    2CHTO  H222  430   5.715   3.874   4.918
    2CHTO  C125  431   5.496   3.885   4.913
    2CHTO   O84  432   5.481   3.744   4.935
    2CHTO  H205  433   5.398   3.716   4.903
    2CHTO  C114  434   5.661   4.082   4.926
    2CHTO  H218  435   5.581   4.143   4.969
    2CHTO  C116  436   5.797   4.133   4.983
    2CHTO  H220  437   5.880   4.080   4.931
    2CHTO   O79  438   5.812   4.273   4.951
    2CHTO  H201  439   5.821   4.284   4.859
    2CHTO  C120  440   5.805   4.107   5.139
    2CHTO  H224  441   5.729   4.173   5.186
    2CHTO   N21  442   5.937   4.143   5.196
    2CHTO  H211  443   5.981   4.225   5.141
    2CHTO  H212  444   5.927   4.169   5.300
    2CHTO   O75  445   5.655   4.084   4.782
    2CHTO  C112  446   5.583   4.215   4.727
    2CHTO  H216  447   5.610   4.301   4.790
    2CHTO   O73  448   5.441   4.190   4.730
    2CHTO  C113  449   5.362   4.304   4.693
    2CHTO  H217  450   5.386   4.389   4.760
    2CHTO  C124  451   5.215   4.266   4.718
    2CHTO   O83  452   5.126   4.378   4.707
    2CHTO  H204  453   5.038   4.349   4.724
    2CHTO  C109  454   5.391   4.342   4.545
    2CHTO  H213  455   5.360   4.256   4.483
    2CHTO  C110  456   5.544   4.368   4.528
    2CHTO  H214  457   5.571   4.457   4.585
    2CHTO   O78  458   5.573   4.396   4.390
    2CHTO  H200  459   5.533   4.477   4.364
    2CHTO  C111  460   5.627   4.246   4.579
    2CHTO  H215  461   5.603   4.159   4.517
    2CHTO   N19  462   5.774   4.265   4.572
    2CHTO  H207  463   5.804   4.352   4.629
    2CHTO  H208  464   5.804   4.278   4.469
    2CHTO   O74  465   5.314   4.459   4.506
    2CHTO  C115  466   5.252   4.448   4.363
    2CHTO  H219  467   5.309   4.380   4.300
    2CHTO   O76  468   5.108   4.384   4.368
    2CHTO  C122  469   5.006   4.479   4.399
    2CHTO  H226  470   5.030   4.523   4.496
    2CHTO  C126  471   4.870   4.403   4.420
    2CHTO   O85  472   4.833   4.321   4.309
    2CHTO  H206  473   4.811   4.375   4.235
    2CHTO  C121  474   4.994   4.593   4.289
    2CHTO  H225  475   4.911   4.568   4.220
    2CHTO   O81  476   4.962   4.716   4.356
    2CHTO  H202  477   4.940   4.782   4.293
    2CHTO  C119  478   5.126   4.608   4.207
    2CHTO  H223  479   5.127   4.525   4.136
    2CHTO  C117  480   5.253   4.592   4.299
    2CHTO  H221  481   5.258   4.662   4.382
    2CHTO   N20  482   5.380   4.614   4.221
    2CHTO  H209  483   5.465   4.604   4.287
    2CHTO  H210  484   5.379   4.712   4.176
    2CHTO   O80  485   5.126   4.736   4.107
    2CHTO  C103  486   5.034   4.737   3.978
    2CHTO  H190  487   5.081   4.799   3.902
    2CHTO  C101  488   4.997   4.598   3.912
    2CHTO  H188  489   4.957   4.532   3.988
    2CHTO   O68  490   5.127   4.535   3.854
    2CHTO  H168  491   5.187   4.516   3.923
    2CHTO   C99  492   4.885   4.618   3.798
    2CHTO  H186  493   4.928   4.679   3.716
    2CHTO   N17  494   4.837   4.490   3.737
    2CHTO  H174  495   4.880   4.404   3.787
    2CHTO  H175  496   4.859   4.488   3.631
    2CHTO   C97  497   4.768   4.701   3.856
    2CHTO  H184  498   4.718   4.641   3.935
    2CHTO   O64  499   4.817   4.826   3.908
    2CHTO  C104  500   4.902   4.811   4.022
    2CHTO  H191  501   4.854   4.755   4.102
    2CHTO  C108  502   4.934   4.950   4.081
    2CHTO   O71  503   4.815   5.017   4.123
    2CHTO  H171  504   4.837   5.100   4.160
    2CHTO   O62  505   4.671   4.741   3.756
    2CHTO   C91  506   4.546   4.789   3.808
    2CHTO  H178  507   4.557   4.806   3.916
    2CHTO   C92  508   4.436   4.678   3.794
    2CHTO  H179  509   4.477   4.581   3.827
    2CHTO   O66  510   4.329   4.708   3.884
    2CHTO  H166  511   4.357   4.698   3.973
    2CHTO   C93  512   4.375   4.670   3.649
    2CHTO  H180  513   4.278   4.618   3.658
    2CHTO   N16  514   4.454   4.584   3.557
    2CHTO  H172  515   4.553   4.625   3.545
    2CHTO  H173  516   4.405   4.577   3.461
    2CHTO   C94  517   4.349   4.814   3.589
    2CHTO  H181  518   4.420   4.839   3.509
    2CHTO   O61  519   4.365   4.917   3.688
    2CHTO   C95  520   4.499   4.925   3.741
    2CHTO  H182  521   4.567   4.950   3.659
    2CHTO  C106  522   4.503   5.046   3.840
    2CHTO   O69  523   4.634   5.068   3.893
    2CHTO  H169  524   4.691   5.098   3.825
    2CHTO   O63  525   4.202   4.820   3.532
    2CHTO   C96  526   4.149   4.967   3.494
    2CHTO  H183  527   4.160   5.029   3.584
    2CHTO   C98  528   3.998   4.968   3.456
    2CHTO  H185  529   3.978   4.890   3.381
    2CHTO   O67  530   3.924   4.929   3.573
    2CHTO  H167  531   3.933   4.994   3.641
    2CHTO  C102  532   3.956   5.113   3.401
    2CHTO  H189  533   3.982   5.184   3.481
    2CHTO   N18  534   3.811   5.134   3.375
    2CHTO  H176  535   3.755   5.120   3.466
    2CHTO  H177  536   3.776   5.064   3.300
    2CHTO  C105  537   4.041   5.146   3.275
    2CHTO  H192  538   3.985   5.122   3.185
    2CHTO   O65  539   4.166   5.074   3.262
    2CHTO  C100  540   4.238   5.029   3.378
    2CHTO  H187  541   4.305   4.950   3.342
    2CHTO  C107  542   4.332   5.142   3.431
    2CHTO   O70  543   4.261   5.254   3.487
    2CHTO  H170  544   4.219   5.227   3.566
    2CHTO   O57  545   4.066   5.304   3.283
    2CHTO   C85  546   4.062   5.381   3.162
    2CHTO  H157  547   3.978   5.341   3.102
    2CHTO   C83  548   4.191   5.358   3.077
    2CHTO  H155  549   4.195   5.253   3.050
    2CHTO   O56  550   4.308   5.385   3.157
    2CHTO  H135  551   4.313   5.324   3.229
    2CHTO   C81  552   4.182   5.443   2.947
    2CHTO  H153  553   4.092   5.414   2.894
    2CHTO   N14  554   4.291   5.415   2.851
    2CHTO  H141  555   4.274   5.468   2.759
    2CHTO  H142  556   4.386   5.445   2.892
    2CHTO   C79  557   4.170   5.596   2.984
    2CHTO  H151  558   4.153   5.650   2.890
    2CHTO   O52  559   4.052   5.619   3.067
    2CHTO   C86  560   4.046   5.536   3.188
    2CHTO  H158  561   4.127   5.575   3.253
    2CHTO   C90  562   3.914   5.564   3.264
    2CHTO   O60  563   3.908   5.699   3.312
    2CHTO  H138  564   3.971   5.712   3.380
    2CHTO   O50  565   4.287   5.651   3.048
    2CHTO   C73  566   4.349   5.780   3.036
    2CHTO  H145  567   4.285   5.847   2.977
    2CHTO   C74  568   4.488   5.768   2.965
    2CHTO  H146  569   4.470   5.720   2.868
    2CHTO   O54  570   4.535   5.901   2.936
    2CHTO  H133  571   4.553   5.948   3.015
    2CHTO   C75  572   4.586   5.683   3.056
    2CHTO  H147  573   4.546   5.581   3.064
    2CHTO   N13  574   4.723   5.667   3.000
    2CHTO  H139  575   4.768   5.764   2.986
    2CHTO  H140  576   4.718   5.617   2.905
    2CHTO   C76  577   4.590   5.744   3.204
    2CHTO  H148  578   4.637   5.843   3.198
    2CHTO   O49  579   4.454   5.759   3.258
    2CHTO   C77  580   4.369   5.842   3.178
    2CHTO  H149  581   4.413   5.941   3.167
    2CHTO   C88  582   4.235   5.863   3.249
    2CHTO   O58  583   4.253   5.933   3.377
    2CHTO  H136  584   4.169   5.948   3.417
    2CHTO   O51  585   4.666   5.646   3.305
    2CHTO   C78  586   4.709   5.722   3.435
    2CHTO  H150  587   4.647   5.812   3.451
    2CHTO   C80  588   4.858   5.764   3.428
    2CHTO  H152  589   4.921   5.672   3.417
    2CHTO   O55  590   4.874   5.845   3.311
    2CHTO  H134  591   4.965   5.867   3.299
    2CHTO   C84  592   4.899   5.841   3.560
    2CHTO  H156  593   4.840   5.932   3.565
    2CHTO   N15  594   5.044   5.882   3.561
    2CHTO  H143  595   5.052   5.989   3.571
    2CHTO  H144  596   5.098   5.835   3.640
    2CHTO   C87  597   4.863   5.756   3.685
    2CHTO  H159  598   4.931   5.671   3.695
    2CHTO   O53  599   4.715   5.704   3.676
    2CHTO   C82  600   4.688   5.630   3.557
    2CHTO  H154  601   4.753   5.542   3.551
    2CHTO   C89  602   4.543   5.577   3.561
    2CHTO   O59  603   4.525   5.481   3.666
    2CHTO  H137  604   4.532   5.523   3.750
    2CHTO   O45  605   4.870   5.847   3.818
    2CHTO   C67  606   4.879   5.771   3.940
    2CHTO  H124  607   4.845   5.669   3.922
    2CHTO   C65  608   5.027   5.767   3.991
    2CHTO  H122  609   5.074   5.858   3.954
    2CHTO   O44  610   5.087   5.654   3.925
    2CHTO  H102  611   5.180   5.653   3.942
    2CHTO   C63  612   5.038   5.776   4.148
    2CHTO  H120  613   5.027   5.881   4.177
    2CHTO   N11  614   5.173   5.745   4.205
    2CHTO  H108  615   5.248   5.802   4.154
    2CHTO  H109  616   5.194   5.641   4.194
    2CHTO   C61  617   4.919   5.700   4.216
    2CHTO  H118  618   4.928   5.720   4.324
    2CHTO   O40  619   4.790   5.752   4.175
    2CHTO   C68  620   4.782   5.829   4.050
    2CHTO  H125  621   4.807   5.935   4.071
    2CHTO   C72  622   4.636   5.826   4.001
    2CHTO   O48  623   4.545   5.880   4.097
    2CHTO  H105  624   4.537   5.821   4.170
    2CHTO   O38  625   4.919   5.558   4.190
    2CHTO   C55  626   4.863   5.477   4.296
    2CHTO  H112  627   4.802   5.540   4.364
    2CHTO   C56  628   4.980   5.403   4.374
    2CHTO  H113  629   5.040   5.350   4.298
    2CHTO   O42  630   5.065   5.502   4.434
    2CHTO  H100  631   5.140   5.461   4.473
    2CHTO   C57  632   4.923   5.302   4.481
    2CHTO  H114  633   4.879   5.364   4.560
    2CHTO   N10  634   5.027   5.218   4.546
    2CHTO  H106  635   5.120   5.272   4.553
    2CHTO  H107  636   5.043   5.128   4.489
    2CHTO   C58  637   4.810   5.214   4.420
    2CHTO  H115  638   4.855   5.141   4.349
    2CHTO   O37  639   4.712   5.294   4.351
    2CHTO   C59  640   4.765   5.370   4.241
    2CHTO  H116  641   4.816   5.303   4.171
    2CHTO   C70  642   4.647   5.433   4.165
    2CHTO   O46  643   4.566   5.521   4.244
    2CHTO  H103  644   4.615   5.597   4.268
    2CHTO   O39  645   4.730   5.132   4.542
    2CHTO   C60  646   4.618   5.055   4.496
    2CHTO  H117  647   4.562   5.115   4.424
    2CHTO   C62  648   4.657   4.922   4.425
    2CHTO  H119  649   4.739   4.948   4.354
    2CHTO   O43  650   4.710   4.826   4.518
    2CHTO  H101  651   4.737   4.749   4.473
    2CHTO   C66  652   4.530   4.874   4.342
    2CHTO  H123  653   4.499   4.956   4.277
    2CHTO   N12  654   4.556   4.762   4.250
    2CHTO  H110  655   4.633   4.790   4.179
    2CHTO  H111  656   4.466   4.733   4.198
    2CHTO   C69  657   4.409   4.845   4.437
    2CHTO  H126  658   4.392   4.735   4.448
    2CHTO   O41  659   4.424   4.906   4.588
    2CHTO   C64  660   4.522   5.026   4.615
    2CHTO  H121  661   4.584   5.002   4.704
    2CHTO   C71  662   4.439   5.152   4.648
    2CHTO   O47  663   4.365   5.133   4.770
    2CHTO  H104  664   4.318   5.211   4.789
    2CHTO   O34  665   4.284   4.900   4.371
    2CHTO   C49  666   4.191   5.023   4.351
    2CHTO   H91  667   4.152   5.049   4.450
    2CHTO   C47  668   4.076   4.980   4.258
    2CHTO   H89  669   4.004   5.065   4.253
    2CHTO   O33  670   4.009   4.867   4.317
    2CHTO   H70  671   3.965   4.893   4.396
    2CHTO   C45  672   4.138   4.951   4.112
    2CHTO   H87  673   4.222   4.881   4.123
    2CHTO    N8  674   4.040   4.892   4.018
    2CHTO   H75  675   4.071   4.792   3.989
    2CHTO   H76  676   4.028   4.953   3.930
    2CHTO   C43  677   4.205   5.087   4.057
    2CHTO   H85  678   4.251   5.061   3.962
    2CHTO   O29  679   4.302   5.136   4.152
    2CHTO   C50  680   4.264   5.146   4.291
    2CHTO   H92  681   4.357   5.159   4.348
    2CHTO   C54  682   4.187   5.278   4.321
    2CHTO   O36  683   4.268   5.393   4.293
    2CHTO   H72  684   4.219   5.471   4.313
    2CHTO   O27  685   4.107   5.189   4.026
    2CHTO   C37  686   4.081   5.271   3.911
    2CHTO   H79  687   4.123   5.224   3.820
    2CHTO   C38  688   3.927   5.286   3.889
    2CHTO   H80  689   3.881   5.312   3.985
    2CHTO   O31  690   3.877   5.157   3.847
    2CHTO   H68  691   3.881   5.096   3.919
    2CHTO   C39  692   3.890   5.397   3.782
    2CHTO   H81  693   3.923   5.361   3.685
    2CHTO    N7  694   3.742   5.423   3.773
    2CHTO   H73  695   3.704   5.456   3.869
    2CHTO   H74  696   3.691   5.334   3.741
    2CHTO   C40  697   3.970   5.530   3.812
    2CHTO   H82  698   3.935   5.572   3.906
    2CHTO   O26  699   4.110   5.498   3.816
    2CHTO   C41  700   4.147   5.411   3.928
    2CHTO   H83  701   4.113   5.456   4.023
    2CHTO   C52  702   4.301   5.404   3.932
    2CHTO   O35  703   4.363   5.535   3.959
    2CHTO   H71  704   4.456   5.526   3.961
    2CHTO   O28  705   3.955   5.630   3.708
    2CHTO   C42  706   3.998   5.769   3.727
    2CHTO   H84  707   3.969   5.817   3.633
    2CHTO   C44  708   4.153   5.791   3.740
    2CHTO   H86  709   4.189   5.733   3.825
    2CHTO   O32  710   4.213   5.736   3.620
    2CHTO   H69  711   4.187   5.787   3.545
    2CHTO   C48  712   4.192   5.942   3.765
    2CHTO   H90  713   4.161   6.001   3.678
    2CHTO    N9  714   4.341   5.960   3.778
    2CHTO   H77  715   4.377   6.028   3.703
    2CHTO   H78  716   4.368   5.996   3.877
    2CHTO   C51  717   4.111   5.992   3.891
    2CHTO   H93  718   4.135   5.924   3.974
    2CHTO   O30  719   3.972   5.989   3.858
    2CHTO   C46  720   3.921   5.843   3.841
    2CHTO   H88  721   3.936   5.790   3.935
    2CHTO   C53  722   3.770   5.850   3.808
    2CHTO   O72  723   3.697   5.911   3.915
    2CHTO  H199  724   3.606   5.915   3.893
    2CHTO   O22  725   4.141   6.129   3.928
    2CHTO   C31  726   4.110   6.189   4.060
    2CHTO   H59  727   4.177   6.276   4.070
    2CHTO   C29  728   3.966   6.242   4.073
    2CHTO   H57  729   3.897   6.157   4.058
    2CHTO   O21  730   3.944   6.334   3.964
    2CHTO   H37  731   3.854   6.361   3.962
    2CHTO   C27  732   3.938   6.307   4.215
    2CHTO   H55  733   4.005   6.394   4.227
    2CHTO    N5  734   3.798   6.352   4.232
    2CHTO   H43  735   3.773   6.423   4.155
    2CHTO   H44  736   3.786   6.398   4.329
    2CHTO   C25  737   3.979   6.203   4.326
    2CHTO   H53  738   3.915   6.113   4.315
    2CHTO   O17  739   4.117   6.163   4.307
    2CHTO   C32  740   4.143   6.096   4.182
    2CHTO   H60  741   4.081   6.007   4.177
    2CHTO   C36  742   4.291   6.052   4.185
    2CHTO   O25  743   4.381   6.163   4.198
    2CHTO   H40  744   4.469   6.131   4.200
    2CHTO   O15  745   3.968   6.261   4.473
    2CHTO   C19  746   3.869   6.256   4.580
    2CHTO   H47  747   3.778   6.299   4.534
    2CHTO   C20  748   3.834   6.114   4.633
    2CHTO   H48  749   3.923   6.064   4.676
    2CHTO   O19  750   3.791   6.037   4.520
    2CHTO   H35  751   3.777   5.947   4.545
    2CHTO   C21  752   3.722   6.121   4.744
    2CHTO   H49  753   3.631   6.159   4.699
    2CHTO    N4  754   3.688   5.987   4.802
    2CHTO   H41  755   3.775   5.944   4.849
    2CHTO   H42  756   3.609   5.997   4.875
    2CHTO   C22  757   3.766   6.223   4.853
    2CHTO   H50  758   3.853   6.184   4.905
    2CHTO   O14  759   3.797   6.351   4.795
    2CHTO   C23  760   3.904   6.349   4.700
    2CHTO   H51  761   3.994   6.315   4.753
    2CHTO   C34  762   3.932   6.494   4.655
    2CHTO   O23  763   3.819   6.555   4.592
    2CHTO   H38  764   3.802   6.514   4.510
    2CHTO   O16  765   3.659   6.251   4.946
    2CHTO   C24  766   3.708   6.305   5.088
    2CHTO   H52  767   3.808   6.347   5.083
    2CHTO   C26  768   3.705   6.188   5.189
    2CHTO   H54  769   3.604   6.140   5.185
    2CHTO   O20  770   3.802   6.090   5.148
    2CHTO   H36  771   3.775   6.048   5.070
    2CHTO   C30  772   3.729   6.238   5.335
    2CHTO   H58  773   3.833   6.273   5.345
    2CHTO    N6  774   3.713   6.128   5.434
    2CHTO   H45  775   3.783   6.048   5.413
    2CHTO   H46  776   3.613   6.088   5.429
    2CHTO   C33  777   3.638   6.360   5.368
    2CHTO   H61  778   3.532   6.329   5.369
    2CHTO   O18  779   3.655   6.460   5.265
    2CHTO   C28  780   3.614   6.418   5.134
    2CHTO   H56  781   3.511   6.381   5.136
    2CHTO   C35  782   3.621   6.538   5.037
    2CHTO   O24  783   3.536   6.646   5.076
    2CHTO   H39  784   3.544   6.716   5.014
    2CHTO    O9  785   3.664   6.414   5.499
    2CHTO   C13  786   3.566   6.539   5.540
    2CHTO   H26  787   3.472   6.530   5.482
    2CHTO   C11  788   3.641   6.676   5.507
    2CHTO   H24  789   3.634   6.693   5.398
    2CHTO    O8  790   3.780   6.665   5.542
    2CHTO    H3  791   3.826   6.742   5.515
    2CHTO    C9  792   3.569   6.790   5.583
    2CHTO   H22  793   3.462   6.779   5.560
    2CHTO    N2  794   3.604   6.926   5.534
    2CHTO   H10  795   3.585   6.933   5.428
    2CHTO   H11  796   3.546   7.000   5.587
    2CHTO    C7  797   3.591   6.767   0.105
    2CHTO   H20  798   3.502   6.815   0.151
    2CHTO    O4  799   3.595   6.627   0.141
    2CHTO   C14  800   3.521   6.535   0.060
    2CHTO   H27  801   3.414   6.563   0.066
    2CHTO   C18  802   3.535   6.394   0.124
    2CHTO   O13  803   3.454   6.298   0.056
    2CHTO    H7  804   3.464   6.214   0.097
    2CHTO    O2  805   3.728   6.837   0.161
    2CHTO    C1  806   3.718   6.887   0.296
    2CHTO   H14  807   3.633   6.838   0.348
    2CHTO    C2  808   3.699   7.044   0.303
    2CHTO   H15  809   3.782   7.087   0.245
    2CHTO    O6  810   3.575   7.079   0.240
    2CHTO    H1  811   3.502   7.041   0.287
    2CHTO    C3  812   3.707   7.095   0.455
    2CHTO   H16  813   3.622   7.055   0.512
    2CHTO    N1  814   3.701   7.245   0.465
    2CHTO    H8  815   3.782   7.289   0.409
    2CHTO    H9  816   3.606   7.280   0.426
    2CHTO    C4  817   3.836   7.036   0.523
    2CHTO   H17  818   3.925   7.081   0.477
    2CHTO    O1  819   3.840   6.893   0.509
    2CHTO    C5  820   3.847   6.847   0.374
    2CHTO   H18  821   3.931   6.895   0.325
    2CHTO   C16  822   3.869   6.694   0.375
    2CHTO   O11  823   3.996   6.660   0.431
    2CHTO    H5  824   4.065   6.689   0.374
    2CHTO    O3  825   3.838   7.059   0.666
    2CHTO    C6  826   3.972   7.060   0.725
    2CHTO   H19  827   4.049   7.024   0.656
    2CHTO    C8  828   4.011   7.206   0.768
    2CHTO   H21  829   3.931   7.245   0.832
    2CHTO    O7  830   4.018   7.286   0.648
    2CHTO    H2  831   4.088   7.256   0.592
    2CHTO   C12  832   4.147   7.208   0.848
    2CHTO   H25  833   4.227   7.184   0.775
    2CHTO    N3  834   4.179   7.345   0.901
    2CHTO   H12  835   4.100   7.378   0.968
    2CHTO   H13  836   4.190   7.415   0.820
    2CHTO   C15  837   4.146   7.098   0.960
    2CHTO   H28  838   4.080   7.123   1.042
    2CHTO   O10  839   4.286   7.068   1.014
    2CHTO    H4  840   4.319   7.144   1.058
    2CHTO    O5  841   4.110   6.970   0.905
    2CHTO   C10  842   3.978   6.967   0.850
    2CHTO   H23  843   3.907   7.000   0.926
    2CHTO   C17  844   3.947   6.819   0.819
    2CHTO   O12  845   3.808   6.799   0.791
    2CHTO    H6  846   3.794   6.708   0.771
    3CHTO  H203  847   5.993   2.860   2.629
    3CHTO   O82  848   6.047   2.930   2.597
    3CHTO  C123  849   6.091   2.901   2.463
    3CHTO  H227  850   6.129   2.798   2.459
    3CHTO   O77  851   5.969   2.913   2.383
    3CHTO  C118  852   5.984   2.886   2.243
    3CHTO  H222  853   6.022   2.784   2.228
    3CHTO  C125  854   5.842   2.898   2.177
    3CHTO   O84  855   5.753   2.797   2.226
    3CHTO  H205  856   5.733   2.813   2.317
    3CHTO  C114  857   6.082   2.988   2.181
    3CHTO  H218  858   6.043   3.088   2.198
    3CHTO  C116  859   6.220   2.984   2.256
    3CHTO  H220  860   6.269   2.886   2.237
    3CHTO   O79  861   6.305   3.084   2.198
    3CHTO  H201  862   6.270   3.170   2.212
    3CHTO  C120  863   6.200   3.004   2.411
    3CHTO  H224  864   6.162   3.108   2.425
    3CHTO   N21  865   6.327   2.994   2.487
    3CHTO  H211  866   6.410   3.030   2.427
    3CHTO  H212  867   6.346   2.891   2.517
    3CHTO   O75  868   6.085   2.964   2.039
    3CHTO  C112  869   6.184   2.842   1.982
    3CHTO  H216  870   6.183   2.758   2.053
    3CHTO   O73  871   6.316   2.898   1.967
    3CHTO  C113  872   6.414   2.801   1.926
    3CHTO  H217  873   6.410   2.714   1.996
    3CHTO  C124  874   6.554   2.862   1.939
    3CHTO   O83  875   6.576   2.977   1.857
    3CHTO  H204  876   6.523   3.049   1.889
    3CHTO  C109  877   6.383   2.752   1.782
    3CHTO  H213  878   6.395   2.838   1.715
    3CHTO  C110  879   6.236   2.697   1.774
    3CHTO  H214  880   6.234   2.599   1.823
    3CHTO   O78  881   6.201   2.677   1.636
    3CHTO  H200  882   6.253   2.609   1.598
    3CHTO  C111  883   6.133   2.793   1.841
    3CHTO  H215  884   6.121   2.882   1.778
    3CHTO   N19  885   5.998   2.732   1.855
    3CHTO  H207  886   6.003   2.642   1.913
    3CHTO  H208  887   5.957   2.710   1.757
    3CHTO   O74  888   6.481   2.649   1.744
    3CHTO  C115  889   6.506   2.631   1.587
    3CHTO  H219  890   6.438   2.692   1.528
    3CHTO   O76  891   6.651   2.679   1.545
    3CHTO  C122  892   6.755   2.602   1.606
    3CHTO  H226  893   6.752   2.621   1.713
    3CHTO  C126  894   6.894   2.655   1.556
    3CHTO   O85  895   6.924   2.786   1.604
    3CHTO  H206  896   6.865   2.848   1.566
    3CHTO  C121  897   6.741   2.446   1.578
    3CHTO  H225  898   6.830   2.412   1.521
    3CHTO   O81  899   6.744   2.375   1.703
    3CHTO  H202  900   6.669   2.397   1.755
    3CHTO  C119  901   6.614   2.412   1.495
    3CHTO  H223  902   6.631   2.461   1.399
    3CHTO  C117  903   6.483   2.477   1.555
    3CHTO  H221  904   6.450   2.434   1.650
    3CHTO   N20  905   6.367   2.457   1.462
    3CHTO  H209  906   6.386   2.505   1.367
    3CHTO  H210  907   6.349   2.351   1.447
    3CHTO   O80  908   6.606   2.256   1.448
    3CHTO  C103  909   6.596   2.136   1.557
    3CHTO  H190  910   6.679   2.140   1.628
    3CHTO  C101  911   6.460   2.122   1.638
    3CHTO  H188  912   6.379   2.151   1.572
    3CHTO   O68  913   6.464   2.220   1.756
    3CHTO  H168  914   6.380   2.224   1.798
    3CHTO   C99  915   6.432   1.973   1.691
    3CHTO  H186  916   6.503   1.951   1.773
    3CHTO   N17  917   6.293   1.957   1.747
    3CHTO  H174  918   6.298   1.932   1.852
    3CHTO  H175  919   6.237   1.883   1.692
    3CHTO   C97  920   6.463   1.870   1.579
    3CHTO  H184  921   6.392   1.887   1.497
    3CHTO   O64  922   6.600   1.886   1.537
    3CHTO  C104  923   6.620   2.009   1.465
    3CHTO  H191  924   6.552   2.014   1.381
    3CHTO  C108  925   6.761   2.010   1.405
    3CHTO   O71  926   6.863   2.002   1.505
    3CHTO  H171  927   6.948   2.002   1.464
    3CHTO   O62  928   6.457   1.733   1.625
    3CHTO   C91  929   6.363   1.647   1.557
    3CHTO  H178  930   6.273   1.706   1.534
    3CHTO   C92  931   6.316   1.535   1.655
    3CHTO  H179  932   6.404   1.477   1.685
    3CHTO   O66  933   6.266   1.595   1.776
    3CHTO  H166  934   6.246   1.529   1.840
    3CHTO   C93  935   6.204   1.443   1.591
    3CHTO  H180  936   6.109   1.495   1.608
    3CHTO   N16  937   6.188   1.313   1.661
    3CHTO  H172  938   6.109   1.256   1.615
    3CHTO  H173  939   6.281   1.258   1.658
    3CHTO   C94  940   6.224   1.426   1.435
    3CHTO  H181  941   6.202   1.324   1.402
    3CHTO   O61  942   6.361   1.450   1.396
    3CHTO   C95  943   6.418   1.579   1.425
    3CHTO  H182  944   6.525   1.567   1.437
    3CHTO  C106  945   6.400   1.674   1.302
    3CHTO   O69  946   6.479   1.631   1.191
    3CHTO  H169  947   6.446   1.550   1.157
    3CHTO   O63  948   6.129   1.528   1.361
    3CHTO   C96  949   5.988   1.473   1.324
    3CHTO  H183  950   5.962   1.394   1.395
    3CHTO   C98  951   5.980   1.413   1.180
    3CHTO  H185  952   6.032   1.480   1.110
    3CHTO   O67  953   6.055   1.291   1.180
    3CHTO  H167  954   6.058   1.255   1.094
    3CHTO  C102  955   5.828   1.390   1.130
    3CHTO  H189  956   5.786   1.312   1.195
    3CHTO   N18  957   5.814   1.341   0.991
    3CHTO  H176  958   5.865   1.246   0.981
    3CHTO  H177  959   5.709   1.327   0.967
    3CHTO  C105  960   5.751   1.523   1.155
    3CHTO  H192  961   5.799   1.603   1.099
    3CHTO   O65  962   5.754   1.557   1.295
    3CHTO  C100  963   5.885   1.592   1.342
    3CHTO  H187  964   5.921   1.677   1.283
    3CHTO  C107  965   5.875   1.639   1.489
    3CHTO   O70  966   5.828   1.535   1.576
    3CHTO  H170  967   5.739   1.514   1.556
    3CHTO   O57  968   5.592   1.509   1.110
    3CHTO   C85  969   5.538   1.600   1.013
    3CHTO  H157  970   5.596   1.582   0.919
    3CHTO   C83  971   5.566   1.750   1.052
    3CHTO  H155  972   5.674   1.764   1.057
    3CHTO   O56  973   5.516   1.775   1.184
    3CHTO  H135  974   5.540   1.862   1.211
    3CHTO   C81  975   5.510   1.842   0.941
    3CHTO  H153  976   5.556   1.814   0.847
    3CHTO   N14  977   5.550   1.984   0.957
    3CHTO  H141  978   5.507   2.025   1.047
    3CHTO  H142  979   5.657   1.992   0.963
    3CHTO   C79  980   5.354   1.822   0.926
    3CHTO  H151  981   5.322   1.880   0.839
    3CHTO   O52  982   5.324   1.682   0.896
    3CHTO   C86  983   5.382   1.585   0.989
    3CHTO  H158  984   5.326   1.601   1.083
    3CHTO   C90  985   5.347   1.441   0.943
    3CHTO   O60  986   5.399   1.413   0.813
    3CHTO  H138  987   5.375   1.326   0.788
    3CHTO   O50  988   5.279   1.867   1.040
    3CHTO   C73  989   5.144   1.913   1.054
    3CHTO  H145  990   5.074   1.842   1.009
    3CHTO   C74  991   5.126   2.052   0.984
    3CHTO  H146  992   5.154   2.039   0.878
    3CHTO   O54  993   4.986   2.086   0.983
    3CHTO  H133  994   4.938   2.026   0.929
    3CHTO   C75  995   5.216   2.160   1.056
    3CHTO  H147  996   5.321   2.131   1.042
    3CHTO   N13  997   5.204   2.295   0.996
    3CHTO  H139  998   5.166   2.366   1.068
    3CHTO  H140  999   5.300   2.330   0.961
    3CHTO   C76 1000   5.189   2.159   1.214
    3CHTO  H148 1001   5.090   2.201   1.233
    3CHTO   O49 1002   5.197   2.023   1.269
    3CHTO   C77 1003   5.110   1.929   1.205
    3CHTO  H149 1004   5.007   1.965   1.215
    3CHTO   C88 1005   5.112   1.795   1.281
    3CHTO   O58 1006   5.247   1.741   1.298
    3CHTO  H136 1007   5.243   1.661   1.346
    3CHTO   O51 1008   5.306   2.242   1.290
    3CHTO   C78 1009   5.296   2.235   1.448
    3CHTO  H150 1010   5.223   2.159   1.481
    3CHTO   C80 1011   5.252   2.373   1.503
    3CHTO  H152 1012   5.322   2.450   1.464
    3CHTO   O55 1013   5.121   2.399   1.450
    3CHTO  H134 1014   5.094   2.486   1.473
    3CHTO   C84 1015   5.253   2.375   1.662
    3CHTO  H156 1016   5.176   2.306   1.696
    3CHTO   N15 1017   5.219   2.509   1.718
    3CHTO  H143 1018   5.121   2.538   1.687
    3CHTO  H144 1019   5.290   2.583   1.684
    3CHTO   C87 1020   5.390   2.324   1.714
    3CHTO  H159 1021   5.469   2.396   1.691
    3CHTO   O53 1022   5.423   2.188   1.649
    3CHTO   C82 1023   5.433   2.195   1.507
    3CHTO  H154 1024   5.510   2.266   1.478
    3CHTO   C89 1025   5.479   2.055   1.458
    3CHTO   O59 1026   5.516   2.054   1.320
    3CHTO  H137 1027   5.440   2.068   1.266
    3CHTO   O45 1028   5.385   2.296   1.875
    3CHTO   C67 1029   5.508   2.327   1.942
    3CHTO  H124 1030   5.592   2.316   1.873
    3CHTO   C65 1031   5.507   2.475   1.997
    3CHTO  H122 1032   5.417   2.522   1.957
    3CHTO   O44 1033   5.622   2.543   1.945
    3CHTO  H102 1034   5.617   2.634   1.964
    3CHTO   C63 1035   5.491   2.478   2.154
    3CHTO  H120 1036   5.400   2.424   2.180
    3CHTO   N11 1037   5.465   2.613   2.214
    3CHTO  H108 1038   5.534   2.632   2.294
    3CHTO  H109 1039   5.365   2.620   2.250
    3CHTO   C61 1040   5.611   2.397   2.217
    3CHTO  H118 1041   5.583   2.376   2.322
    3CHTO   O40 1042   5.634   2.268   2.153
    3CHTO   C68 1043   5.533   2.222   2.058
    3CHTO  H125 1044   5.438   2.205   2.114
    3CHTO   C72 1045   5.576   2.084   2.002
    3CHTO   O48 1046   5.704   2.085   1.937
    3CHTO  H105 1047   5.771   2.100   2.000
    3CHTO   O38 1048   5.736   2.470   2.212
    3CHTO   C55 1049   5.838   2.426   2.304
    3CHTO  H112 1050   5.821   2.321   2.333
    3CHTO   C56 1051   5.846   2.521   2.430
    3CHTO  H113 1052   5.861   2.624   2.393
    3CHTO   O42 1053   5.720   2.521   2.500
    3CHTO  H100 1054   5.652   2.557   2.446
    3CHTO   C57 1055   5.965   2.479   2.525
    3CHTO  H114 1056   5.938   2.381   2.566
    3CHTO   N10 1057   5.988   2.570   2.640
    3CHTO  H106 1058   5.895   2.615   2.671
    3CHTO  H107 1059   6.030   2.515   2.723
    3CHTO   C58 1060   6.095   2.464   2.442
    3CHTO  H115 1061   6.129   2.564   2.408
    3CHTO   O37 1062   6.076   2.378   2.328
    3CHTO   C59 1063   5.978   2.426   2.234
    3CHTO  H116 1064   6.004   2.527   2.201
    3CHTO   C70 1065   5.978   2.334   2.112
    3CHTO   O46 1066   6.102   2.339   2.040
    3CHTO  H103 1067   6.097   2.283   1.965
    3CHTO   O39 1068   6.210   2.394   2.534
    3CHTO   C60 1069   6.344   2.403   2.482
    3CHTO  H117 1070   6.341   2.385   2.374
    3CHTO   C62 1071   6.409   2.542   2.508
    3CHTO  H119 1072   6.346   2.617   2.455
    3CHTO   O43 1073   6.404   2.570   2.650
    3CHTO  H101 1074   6.437   2.657   2.666
    3CHTO   C66 1075   6.557   2.544   2.446
    3CHTO  H123 1076   6.550   2.525   2.339
    3CHTO   N12 1077   6.623   2.676   2.459
    3CHTO  H110 1078   6.722   2.672   2.415
    3CHTO  H111 1079   6.563   2.752   2.412
    3CHTO   C69 1080   6.641   2.429   2.509
    3CHTO  H126 1081   6.655   2.447   2.618
    3CHTO   O41 1082   6.568   2.293   2.488
    3CHTO   C64 1083   6.430   2.290   2.544
    3CHTO  H121 1084   6.434   2.303   2.654
    3CHTO   C71 1085   6.368   2.151   2.515
    3CHTO   O47 1086   6.443   2.047   2.580
    3CHTO  H104 1087   6.404   1.964   2.561
    3CHTO   O34 1088   6.785   2.416   2.443
    3CHTO   C49 1089   6.870   2.330   2.341
    3CHTO   H91 1090   6.975   2.353   2.363
    3CHTO   C47 1091   6.837   2.374   2.197
    3CHTO   H89 1092   6.913   2.325   2.131
    3CHTO   O33 1093   6.855   2.517   2.188
    3CHTO   H70 1094   6.845   2.545   2.099
    3CHTO   C45 1095   6.690   2.323   2.157
    3CHTO   H87 1096   6.619   2.360   2.232
    3CHTO    N8 1097   6.646   2.373   2.024
    3CHTO   H75 1098   6.710   2.333   1.947
    3CHTO   H76 1099   6.648   2.481   2.022
    3CHTO   C43 1100   6.684   2.163   2.170
    3CHTO   H85 1101   6.580   2.136   2.150
    3CHTO   O29 1102   6.725   2.123   2.302
    3CHTO   C50 1103   6.846   2.178   2.358
    3CHTO   H92 1104   6.842   2.158   2.466
    3CHTO   C54 1105   6.970   2.096   2.313
    3CHTO   O36 1106   6.961   1.959   2.355
    3CHTO   H72 1107   6.891   1.916   2.309
    3CHTO   O27 1108   6.761   2.096   2.069
    3CHTO   C37 1109   6.796   1.965   2.021
    3CHTO   H79 1110   6.877   1.923   2.082
    3CHTO   C38 1111   6.675   1.867   2.031
    3CHTO   H80 1112   6.589   1.912   1.979
    3CHTO   O31 1113   6.643   1.852   2.170
    3CHTO   H68 1114   6.607   1.932   2.204
    3CHTO   C39 1115   6.708   1.727   1.967
    3CHTO   H81 1116   6.780   1.678   2.033
    3CHTO    N7 1117   6.587   1.636   1.960
    3CHTO   H73 1118   6.563   1.611   1.858
    3CHTO   H74 1119   6.606   1.546   2.016
    3CHTO   C40 1120   6.778   1.740   1.826
    3CHTO   H82 1121   6.706   1.758   1.747
    3CHTO   O26 1122   6.882   1.838   1.828
    3CHTO   C41 1123   6.844   1.972   1.873
    3CHTO   H83 1124   6.763   2.010   1.809
    3CHTO   C52 1125   6.969   2.061   1.853
    3CHTO   O35 1126   6.942   2.203   1.876
    3CHTO   H71 1127   6.885   2.236   1.809
    3CHTO   O28 1128   6.851   1.618   1.798
    3CHTO   C42 1129   6.874   1.564   1.663
    3CHTO   H84 1130   6.956   1.495   1.678
    3CHTO   C44 1131   6.920   1.664   1.553
    3CHTO   H86 1132   6.840   1.737   1.535
    3CHTO   O32 1133   7.035   1.733   1.604
    3CHTO   H69 1134   7.062   1.800   1.544
    3CHTO   C48 1135   6.951   1.590   1.416
    3CHTO   H90 1136   7.038   1.526   1.432
    3CHTO    N9 1137   6.991   1.685   1.307
    3CHTO   H77 1138   6.911   1.756   1.289
    3CHTO   H78 1139   7.082   1.737   1.333
    3CHTO   C51 1140   6.831   1.498   1.374
    3CHTO   H93 1141   6.748   1.561   1.341
    3CHTO   O30 1142   6.793   1.412   1.482
    3CHTO   C46 1143   6.753   1.481   1.610
    3CHTO   H88 1144   6.669   1.548   1.591
    3CHTO   C53 1145   6.711   1.371   1.711
    3CHTO   O72 1146   6.598   1.298   1.663
    3CHTO  H199 1147   6.522   1.353   1.664
    3CHTO   O22 1148   6.871   1.406   1.270
    3CHTO   C31 1149   6.780   1.353   1.166
    3CHTO   H59 1150   6.833   1.266   1.122
    3CHTO   C29 1151   6.643   1.302   1.217
    3CHTO   H57 1152   6.592   1.386   1.267
    3CHTO   O21 1153   6.666   1.202   1.318
    3CHTO   H37 1154   6.704   1.126   1.280
    3CHTO   C27 1155   6.551   1.250   1.099
    3CHTO   H55 1156   6.600   1.163   1.053
    3CHTO    N5 1157   6.414   1.211   1.142
    3CHTO   H43 1158   6.399   1.105   1.123
    3CHTO   H44 1159   6.399   1.233   1.246
    3CHTO   C25 1160   6.545   1.363   0.989
    3CHTO   H53 1161   6.499   1.452   1.034
    3CHTO   O17 1162   6.679   1.397   0.946
    3CHTO   C32 1163   6.761   1.454   1.049
    3CHTO   H60 1164   6.715   1.545   1.088
    3CHTO   C36 1165   6.897   1.491   0.985
    3CHTO   O25 1166   6.881   1.590   0.882
    3CHTO   H40 1167   6.965   1.609   0.845
    3CHTO   O15 1168   6.461   1.322   0.859
    3CHTO   C19 1169   6.394   1.427   0.782
    3CHTO   H47 1170   6.353   1.373   0.696
    3CHTO   C20 1171   6.276   1.496   0.859
    3CHTO   H48 1172   6.309   1.537   0.956
    3CHTO   O19 1173   6.179   1.394   0.886
    3CHTO   H35 1174   6.211   1.334   0.950
    3CHTO   C21 1175   6.212   1.615   0.776
    3CHTO   H49 1176   6.163   1.574   0.688
    3CHTO    N4 1177   6.107   1.689   0.853
    3CHTO   H41 1178   6.149   1.730   0.943
    3CHTO   H42 1179   6.027   1.622   0.879
    3CHTO   C22 1180   6.325   1.708   0.726
    3CHTO   H50 1181   6.375   1.753   0.813
    3CHTO   O14 1182   6.419   1.632   0.649
    3CHTO   C23 1183   6.492   1.534   0.724
    3CHTO   H51 1184   6.547   1.588   0.804
    3CHTO   C34 1185   6.596   1.471   0.630
    3CHTO   O23 1186   6.695   1.565   0.589
    3CHTO   H38 1187   6.750   1.588   0.661
    3CHTO   O16 1188   6.280   1.810   0.634
    3CHTO   C24 1189   6.340   1.959   0.663
    3CHTO   H52 1190   6.397   1.962   0.756
    3CHTO   C26 1191   6.223   2.058   0.674
    3CHTO   H54 1192   6.157   2.046   0.585
    3CHTO   O20 1193   6.145   2.024   0.791
    3CHTO   H36 1194   6.196   2.035   0.869
    3CHTO   C30 1195   6.274   2.206   0.679
    3CHTO   H58 1196   6.329   2.224   0.772
    3CHTO    N6 1197   6.160   2.303   0.678
    3CHTO   H45 1198   6.097   2.286   0.764
    3CHTO   H46 1199   6.198   2.404   0.681
    3CHTO   C33 1200   6.373   2.232   0.562
    3CHTO   H61 1201   6.321   2.218   0.465
    3CHTO   O18 1202   6.480   2.136   0.570
    3CHTO   C28 1203   6.438   2.001   0.549
    3CHTO   H56 1204   6.387   1.992   0.454
    3CHTO   C35 1205   6.563   1.909   0.543
    3CHTO   O24 1206   6.647   1.916   0.659
    3CHTO   H39 1207   6.601   1.882   0.734
    3CHTO    O9 1208   6.424   2.367   0.561
    3CHTO   C13 1209   6.384   2.454   0.428
    3CHTO   H26 1210   6.275   2.442   0.411
    3CHTO   C11 1211   6.469   2.401   0.304
    3CHTO   H24 1212   6.423   2.308   0.268
    3CHTO    O8 1213   6.603   2.371   0.346
    3CHTO    H3 1214   6.646   2.448   0.378
    3CHTO    C9 1215   6.464   2.508   0.191
    3CHTO   H22 1216   6.357   2.527   0.173
    3CHTO    N2 1217   6.515   2.460   0.061
    3CHTO   H10 1218   6.621   2.439   0.067
    3CHTO   H11 1219   6.461   2.371   0.031
    3CHTO    C7 1220   6.530   2.643   0.244
    3CHTO   H20 1221   6.465   2.722   0.201
    3CHTO    O4 1222   6.528   2.653   0.388
    3CHTO   C14 1223   6.407   2.610   0.451
    3CHTO   H27 1224   6.322   2.666   0.406
    3CHTO   C18 1225   6.414   2.652   0.600
    3CHTO   O13 1226   6.289   2.630   0.666
    3CHTO    H7 1227   6.295   2.658   0.755
    3CHTO    O2 1228   6.689   2.666   0.193
    3CHTO    C1 1229   6.736   2.803   0.187
    3CHTO   H14 1230   6.844   2.799   0.162
    3CHTO    C2 1231   6.718   2.886   0.321
    3CHTO   H15 1232   6.612   2.879   0.348
    3CHTO    O6 1233   6.798   2.825   0.424
    3CHTO    H1 1234   6.889   2.830   0.402
    3CHTO    C3 1235   6.756   3.041   0.299
    3CHTO   H16 1236   6.865   3.050   0.280
    3CHTO    N1 1237   6.725   3.123   0.421
    3CHTO    H8 1238   6.780   3.086   0.506
    3CHTO    H9 1239   6.751   3.227   0.404
    3CHTO    C4 1240   6.685   3.095   0.171
    3CHTO   H17 1241   6.577   3.096   0.188
    3CHTO    O1 1242   6.716   3.012   0.058
    3CHTO    C5 1243   6.668   2.878   0.069
    3CHTO   H18 1244   6.561   2.881   0.089
    3CHTO   C16 1245   6.689   2.808   5.566
    3CHTO   O11 1246   6.826   2.810   5.524
    3CHTO    H5 1247   6.853   2.898   5.505
    3CHTO    O3 1248   6.730   3.227   0.132
    3CHTO    C6 1249   6.628   3.307   0.064
    3CHTO   H19 1250   6.539   3.249   0.039
    3CHTO    C8 1251   6.583   3.426   0.154
    3CHTO   H21 1252   6.671   3.486   0.178
    3CHTO    O7 1253   6.528   3.370   0.274
    3CHTO    H2 1254   6.596   3.331   0.326
    3CHTO   C12 1255   6.478   3.515   0.077
    3CHTO   H25 1256   6.388   3.451   0.061
    3CHTO    N3 1257   6.433   3.633   0.159
    3CHTO   H12 1258   6.518   3.695   0.184
    3CHTO   H13 1259   6.383   3.599   0.248
    3CHTO   C15 1260   6.536   3.556   5.570
    3CHTO   H28 1261   6.617   3.628   5.580
    3CHTO   O10 1262   6.427   3.614   5.475
    3CHTO    H4 1263   6.355   3.554   5.467
    3CHTO    O5 1264   6.582   3.440   5.497
    3CHTO   C10 1265   6.683   3.364   5.564
    3CHTO   H23 1266   6.769   3.429   5.584
    3CHTO   C17 1267   6.732   3.254   5.468
    3CHTO   O12 1268   6.628   3.162   5.433
    3CHTO    H6 1269   6.662   3.097   5.375
    4CHTO  H203 1270   6.553   6.614   1.714
    4CHTO   O82 1271   6.607   6.619   1.791
    4CHTO  C123 1272   6.700   6.728   1.781
    4CHTO  H227 1273   6.758   6.733   1.875
    4CHTO   O77 1274   6.788   6.688   1.671
    4CHTO  C118 1275   6.898   6.777   1.648
    4CHTO  H222 1276   6.957   6.786   1.740
    4CHTO  C125 1277   6.987   6.709   1.538
    4CHTO   O84 1278   6.917   6.691   1.414
    4CHTO  H205 1279   6.900   6.774   1.375
    4CHTO  C114 1280   6.846   6.917   1.607
    4CHTO  H218 1281   6.795   6.908   1.511
    4CHTO  C116 1282   6.744   6.972   1.711
    4CHTO  H220 1283   6.799   7.002   1.803
    4CHTO   O79 1284   6.686   7.093   1.658
    4CHTO  H201 1285   6.751   7.161   1.652
    4CHTO  C120 1286   6.633   6.866   1.747
    4CHTO  H224 1287   6.569   6.856   1.658
    4CHTO   N21 1288   6.545   6.913   1.858
    4CHTO  H211 1289   6.587   6.885   1.954
    4CHTO  H212 1290   6.446   6.872   1.847
    4CHTO   O75 1291   6.962   7.002   1.596
    4CHTO  C112 1292   7.018   7.036   1.444
    4CHTO  H216 1293   6.944   7.001   1.369
    4CHTO   O73 1294   7.144   6.968   1.431
    4CHTO  C113 1295   7.213   6.992   1.308
    4CHTO  H217 1296   7.146   6.969   1.222
    4CHTO  C124 1297   7.332   6.897   1.300
    4CHTO   O83 1298   7.290   6.760   1.291
    4CHTO  H204 1299   7.253   6.733   1.373
    4CHTO  C109 1300   7.255   7.141   1.303
    4CHTO  H213 1301   7.315   7.160   1.394
    4CHTO  C110 1302   7.125   7.227   1.305
    4CHTO  H214 1303   7.069   7.207   1.213
    4CHTO   O78 1304   7.163   7.366   1.303
    4CHTO  H200 1305   7.087   7.420   1.294
    4CHTO  C111 1306   7.038   7.193   1.429
    4CHTO  H215 1307   7.091   7.227   1.519
    4CHTO   N19 1308   6.906   7.261   1.430
    4CHTO  H207 1309   6.848   7.231   1.344
    4CHTO  H208 1310   6.852   7.238   1.521
    4CHTO   O74 1311   7.337   7.168   1.185
    4CHTO  C115 1312   7.464   7.262   1.219
    4CHTO  H219 1313   7.442   7.332   1.299
    4CHTO   O76 1314   7.585   7.178   1.272
    4CHTO  C122 1315   7.638   7.090   1.173
    4CHTO  H226 1316   7.558   7.021   1.143
    4CHTO  C126 1317   7.749   7.000   1.237
    4CHTO   O85 1318   7.696   6.913   1.339
    4CHTO  H206 1319   7.765   6.859   1.372
    4CHTO  C121 1320   7.693   7.167   1.046
    4CHTO  H225 1321   7.804   7.162   1.047
    4CHTO   O81 1322   7.650   7.098   0.928
    4CHTO  H202 1323   7.556   7.101   0.920
    4CHTO  C119 1324   7.649   7.317   1.043
    4CHTO  H223 1325   7.714   7.367   1.115
    4CHTO  C117 1326   7.499   7.342   1.086
    4CHTO  H221 1327   7.426   7.308   1.013
    4CHTO   N20 1328   7.471   7.489   1.103
    4CHTO  H209 1329   7.432   7.511   1.201
    4CHTO  H210 1330   7.559   7.548   1.084
    4CHTO   O80 1331   7.694   7.387   0.907
    4CHTO  C103 1332   7.777   7.518   0.909
    4CHTO  H190 1333   7.734   7.591   0.978
    4CHTO  C101 1334   7.931   7.502   0.940
    4CHTO  H188 1335   7.969   7.416   0.885
    4CHTO   O68 1336   7.950   7.475   1.092
    4CHTO  H168 1337   7.907   7.395   1.116
    4CHTO   C99 1338   8.014   7.632   0.893
    4CHTO  H186 1339   7.983   7.720   0.954
    4CHTO   N17 1340   8.163   7.619   0.909
    4CHTO  H174 1341   8.187   7.600   1.013
    4CHTO  H175 1342   8.200   7.539   0.846
    4CHTO   C97 1343   7.976   7.665   0.746
    4CHTO  H184 1344   8.004   7.580   0.683
    4CHTO   O64 1345   7.834   7.692   0.741
    4CHTO  C104 1346   7.755   7.574   0.763
    4CHTO  H191 1347   7.781   7.497   0.691
    4CHTO  C108 1348   7.608   7.608   0.738
    4CHTO   O71 1349   7.585   7.641   0.601
    4CHTO  H171 1350   7.494   7.657   0.587
    4CHTO   O62 1351   8.033   7.788   0.696
    4CHTO   C91 1352   8.080   7.789   0.560
    4CHTO  H178 1353   8.138   7.698   0.543
    4CHTO   C92 1354   8.182   7.908   0.551
    4CHTO  H179 1355   8.139   7.995   0.603
    4CHTO   O66 1356   8.299   7.872   0.628
    4CHTO  H166 1357   8.342   7.798   0.590
    4CHTO   C93 1358   8.221   7.948   0.403
    4CHTO  H180 1359   8.275   7.863   0.358
    4CHTO   N16 1360   8.312   8.065   0.392
    4CHTO  H172 1361   8.404   8.037   0.344
    4CHTO  H173 1362   8.332   8.108   0.490
    4CHTO   C94 1363   8.088   7.971   0.323
    4CHTO  H181 1364   8.023   8.044   0.372
    4CHTO   O61 1365   8.017   7.846   0.320
    4CHTO   C95 1366   7.967   7.800   0.447
    4CHTO  H182 1367   7.890   7.868   0.481
    4CHTO  C106 1368   7.899   7.662   0.418
    4CHTO   O69 1369   7.782   7.677   0.336
    4CHTO  H169 1370   7.715   7.720   0.384
    4CHTO   O63 1371   8.112   8.012   0.169
    4CHTO   C96 1372   7.979   8.060   0.100
    4CHTO  H183 1373   7.900   8.066   0.175
    4CHTO   C98 1374   7.929   7.967   5.620
    4CHTO  H185 1375   8.008   7.958   5.543
    4CHTO   O67 1376   7.911   7.835   0.039
    4CHTO  H167 1377   7.890   7.775   5.605
    4CHTO  C102 1378   7.793   8.021   5.555
    4CHTO  H189 1379   7.713   7.989   5.625
    4CHTO   N18 1380   7.757   7.958   5.425
    4CHTO  H176 1381   7.659   7.913   5.430
    4CHTO  H177 1382   7.760   8.031   5.345
    4CHTO  C105 1383   7.791   8.177   5.551
    4CHTO  H192 1384   7.748   8.211   5.457
    4CHTO   O65 1385   7.922   8.238   5.562
    4CHTO  C100 1386   8.003   8.206   0.042
    4CHTO  H187 1387   8.108   8.212   0.009
    4CHTO  C107 1388   7.984   8.316   0.150
    4CHTO   O70 1389   8.077   8.302   0.258
    4CHTO  H170 1390   8.061   8.369   0.322
    4CHTO   O57 1391   7.695   8.217   0.036
    4CHTO   C85 1392   7.595   8.319   0.016
    4CHTO  H157 1393   7.610   8.360   5.548
    4CHTO   C83 1394   7.622   8.437   0.114
    4CHTO  H155 1395   7.721   8.478   0.092
    4CHTO   O56 1396   7.626   8.387   0.249
    4CHTO  H135 1397   7.652   8.455   0.308
    4CHTO   C81 1398   7.516   8.549   0.091
    4CHTO  H153 1399   7.525   8.583   5.622
    4CHTO   N14 1400   7.541   8.671   0.171
    4CHTO  H141 1401   7.472   8.748   0.144
    4CHTO  H142 1402   7.529   8.650   0.275
    4CHTO   C79 1403   7.370   8.490   0.110
    4CHTO  H151 1404   7.300   8.567   0.078
    4CHTO   O52 1405   7.348   8.375   0.022
    4CHTO   C86 1406   7.447   8.269   0.038
    4CHTO  H158 1407   7.433   8.232   0.142
    4CHTO   C90 1408   7.413   8.150   5.579
    4CHTO   O60 1409   7.287   8.092   5.613
    4CHTO  H138 1410   7.217   8.152   5.592
    4CHTO   O50 1411   7.339   8.453   0.246
    4CHTO   C73 1412   7.233   8.458   0.343
    4CHTO  H145 1413   7.176   8.551   0.333
    4CHTO   C74 1414   7.295   8.452   0.486
    4CHTO  H146 1415   7.367   8.535   0.493
    4CHTO   O54 1416   7.191   8.480   0.581
    4CHTO  H133 1417   7.226   8.482   0.668
    4CHTO   C75 1418   7.366   8.312   0.507
    4CHTO  H147 1419   7.448   8.302   0.434
    4CHTO   N13 1420   7.429   8.295   0.641
    4CHTO  H139 1421   7.413   8.383   0.702
    4CHTO  H140 1422   7.535   8.279   0.631
    4CHTO   C76 1423   7.262   8.194   0.476
    4CHTO  H148 1424   7.181   8.202   0.549
    4CHTO   O49 1425   7.205   8.212   0.342
    4CHTO   C77 1426   7.136   8.337   0.325
    4CHTO  H149 1427   7.057   8.344   0.400
    4CHTO   C88 1428   7.064   8.338   0.190
    4CHTO   O58 1429   6.959   8.232   0.183
    4CHTO  H136 1430   6.889   8.253   0.242
    4CHTO   O51 1431   7.335   8.045   0.483
    4CHTO   C78 1432   7.362   7.968   0.345
    4CHTO  H150 1433   7.370   8.038   0.260
    4CHTO   C80 1434   7.247   7.867   0.317
    4CHTO  H152 1435   7.236   7.801   0.406
    4CHTO   O55 1436   7.125   7.942   0.301
    4CHTO  H134 1437   7.100   7.980   0.383
    4CHTO   C84 1438   7.278   7.779   0.190
    4CHTO  H156 1439   7.281   7.845   0.103
    4CHTO   N15 1440   7.171   7.677   0.162
    4CHTO  H143 1441   7.197   7.620   0.075
    4CHTO  H144 1442   7.078   7.726   0.146
    4CHTO   C87 1443   7.418   7.713   0.204
    4CHTO  H159 1444   7.417   7.640   0.285
    4CHTO   O53 1445   7.524   7.825   0.234
    4CHTO   C82 1446   7.496   7.893   0.357
    4CHTO  H154 1447   7.491   7.820   0.438
    4CHTO   C89 1448   7.612   7.989   0.391
    4CHTO   O59 1449   7.635   8.085   0.287
    4CHTO  H137 1450   7.708   8.140   0.311
    4CHTO   O45 1451   7.460   7.637   0.066
    4CHTO   C67 1452   7.593   7.584   0.057
    4CHTO  H124 1453   7.667   7.660   0.083
    4CHTO   C65 1454   7.613   7.459   0.149
    4CHTO  H122 1455   7.580   7.490   0.248
    4CHTO   O44 1456   7.752   7.423   0.156
    4CHTO  H102 1457   7.765   7.355   0.219
    4CHTO   C63 1458   7.515   7.346   0.103
    4CHTO  H120 1459   7.413   7.385   0.107
    4CHTO   N11 1460   7.506   7.230   0.197
    4CHTO  H108 1461   7.411   7.229   0.247
    4CHTO  H109 1462   7.520   7.137   0.145
    4CHTO   C61 1463   7.540   7.308   5.585
    4CHTO  H118 1464   7.448   7.255   5.556
    4CHTO   O40 1465   7.550   7.424   5.496
    4CHTO   C68 1466   7.619   7.547   5.539
    4CHTO  H125 1467   7.574   7.629   5.480
    4CHTO   C72 1468   7.770   7.544   5.503
    4CHTO   O48 1469   7.792   7.555   5.362
    4CHTO  H105 1470   7.763   7.476   5.319
    4CHTO   O38 1471   7.654   7.222   5.560
    4CHTO   C55 1472   7.631   7.115   5.464
    4CHTO  H112 1473   7.540   7.137   5.405
    4CHTO   C56 1474   7.620   6.975   5.539
    4CHTO  H113 1475   7.711   6.965   5.601
    4CHTO   O42 1476   7.509   6.977   5.629
    4CHTO  H100 1477   7.508   6.899   0.047
    4CHTO   C57 1478   7.608   6.855   5.436
    4CHTO  H114 1479   7.509   6.863   5.390
    4CHTO   N10 1480   7.616   6.721   5.500
    4CHTO  H106 1481   7.518   6.688   5.531
    4CHTO  H107 1482   7.681   6.724   5.587
    4CHTO   C58 1483   7.715   6.868   5.325
    4CHTO  H115 1484   7.816   6.850   5.369
    4CHTO   O37 1485   7.714   7.000   5.267
    4CHTO   C59 1486   7.745   7.106   5.359
    4CHTO  H116 1487   7.841   7.086   5.407
    4CHTO   C70 1488   7.757   7.235   5.278
    4CHTO   O46 1489   7.863   7.231   5.182
    4CHTO  H103 1490   7.864   7.311   5.133
    4CHTO   O39 1491   7.690   6.756   5.200
    4CHTO   C60 1492   7.582   6.778   5.107
    4CHTO  H117 1493   7.497   6.822   5.159
    4CHTO   C62 1494   7.624   6.874   4.990
    4CHTO  H119 1495   7.642   6.974   5.035
    4CHTO   O43 1496   7.748   6.827   4.933
    4CHTO  H101 1497   7.736   6.743   4.893
    4CHTO   C66 1498   7.505   6.887   4.882
    4CHTO  H123 1499   7.417   6.926   4.932
    4CHTO   N12 1500   7.537   6.982   4.774
    4CHTO  H110 1501   7.552   7.081   4.815
    4CHTO  H111 1502   7.624   6.949   4.719
    4CHTO   C69 1503   7.471   6.745   4.829
    4CHTO  H126 1504   7.563   6.700   4.785
    4CHTO   O41 1505   7.425   6.661   4.949
    4CHTO   C64 1506   7.534   6.641   5.050
    4CHTO  H121 1507   7.621   6.590   5.002
    4CHTO   C71 1508   7.478   6.548   5.160
    4CHTO   O47 1509   7.581   6.493   5.242
    4CHTO  H104 1510   7.634   6.433   5.192
    4CHTO   O34 1511   7.354   6.744   4.716
    4CHTO   C49 1512   7.388   6.657   4.586
    4CHTO   H91 1513   7.480   6.698   4.545
    4CHTO   C47 1514   7.274   6.673   4.483
    4CHTO   H89 1515   7.309   6.624   4.389
    4CHTO   O33 1516   7.256   6.813   4.457
    4CHTO   H70 1517   7.331   6.848   4.413
    4CHTO   C45 1518   7.141   6.600   4.537
    4CHTO   H87 1519   7.117   6.644   4.635
    4CHTO    N8 1520   7.024   6.620   4.447
    4CHTO   H75 1521   7.053   6.669   4.356
    4CHTO   H76 1522   6.976   6.526   4.424
    4CHTO   C43 1523   7.171   6.444   4.569
    4CHTO   H85 1524   7.083   6.408   4.622
    4CHTO   O29 1525   7.290   6.429   4.649
    4CHTO   C50 1526   7.408   6.506   4.619
    4CHTO   H92 1527   7.471   6.501   4.709
    4CHTO   C54 1528   7.497   6.438   4.511
    4CHTO   O36 1529   7.549   6.314   4.559
    4CHTO   H72 1530   7.603   6.275   4.493
    4CHTO   O27 1531   7.179   6.363   4.450
    4CHTO   C37 1532   7.159   6.227   4.405
    4CHTO   H79 1533   7.132   6.227   4.298
    4CHTO   C38 1534   7.291   6.145   4.418
    4CHTO   H80 1535   7.333   6.163   4.518
    4CHTO   O31 1536   7.384   6.196   4.320
    4CHTO   H68 1537   7.352   6.181   4.233
    4CHTO   C39 1538   7.271   5.990   4.397
    4CHTO   H81 1539   7.251   5.973   4.291
    4CHTO    N7 1540   7.393   5.909   4.431
    4CHTO   H73 1541   7.476   5.939   4.368
    4CHTO   H74 1542   7.419   5.924   4.535
    4CHTO   C40 1543   7.145   5.937   4.476
    4CHTO   H82 1544   7.166   5.936   4.584
    4CHTO   O26 1545   7.031   6.019   4.445
    4CHTO   C41 1546   7.044   6.158   4.485
    4CHTO   H83 1547   7.065   6.165   4.593
    4CHTO   C52 1548   6.908   6.226   4.458
    4CHTO   O35 1549   6.798   6.168   4.541
    4CHTO   H71 1550   6.781   6.079   4.514
    4CHTO   O28 1551   7.107   5.805   4.434
    4CHTO   C42 1552   7.029   5.715   4.520
    4CHTO   H84 1553   7.008   5.631   4.454
    4CHTO   C44 1554   6.890   5.768   4.567
    4CHTO   H86 1555   6.905   5.862   4.622
    4CHTO   O32 1556   6.813   5.797   4.449
    4CHTO   H69 1557   6.849   5.872   4.404
    4CHTO   C48 1558   6.815   5.667   4.663
    4CHTO   H90 1559   6.789   5.578   4.606
    4CHTO    N9 1560   6.686   5.725   4.715
    4CHTO   H77 1561   6.687   5.732   4.823
    4CHTO   H78 1562   6.603   5.664   4.683
    4CHTO   C51 1563   6.914   5.626   4.779
    4CHTO   H93 1564   6.940   5.718   4.831
    4CHTO   O30 1565   7.028   5.563   4.721
    4CHTO   C46 1566   7.112   5.659   4.639
    4CHTO   H88 1567   7.143   5.742   4.704
    4CHTO   C53 1568   7.236   5.582   4.589
    4CHTO   O72 1569   7.318   5.541   4.699
    4CHTO  H199 1570   7.393   5.495   4.666
    4CHTO   O22 1571   6.860   5.527   4.868
    4CHTO   C31 1572   6.867   5.535   5.017
    4CHTO   H59 1573   6.894   5.432   5.050
    4CHTO   C29 1574   6.973   5.631   5.075
    4CHTO   H57 1575   6.956   5.730   5.031
    4CHTO   O21 1576   7.102   5.586   5.028
    4CHTO   H37 1577   7.168   5.648   5.051
    4CHTO   C27 1578   6.967   5.644   5.232
    4CHTO   H55 1579   6.997   5.548   5.277
    4CHTO    N5 1580   7.059   5.749   5.282
    4CHTO   H43 1581   7.033   5.845   5.239
    4CHTO   H44 1582   7.161   5.724   5.258
    4CHTO   C25 1583   6.818   5.671   5.275
    4CHTO   H53 1584   6.786   5.768   5.232
    4CHTO   O17 1585   6.733   5.566   5.222
    4CHTO   C32 1586   6.726   5.563   5.079
    4CHTO   H60 1587   6.690   5.659   5.042
    4CHTO   C36 1588   6.625   5.454   5.038
    4CHTO   O25 1589   6.494   5.482   5.088
    4CHTO   H40 1590   6.435   5.413   5.064
    4CHTO   O15 1591   6.798   5.676   5.431
    4CHTO   C19 1592   6.834   5.632   5.564
    4CHTO   H47 1593   6.745   5.655   5.625
    4CHTO   C20 1594   6.864   5.479   5.576
    4CHTO   H48 1595   6.943   5.447   5.506
    4CHTO   O19 1596   6.743   5.410   5.538
    4CHTO   H35 1597   6.674   5.428   5.599
    4CHTO   C21 1598   6.910   5.438   0.089
    4CHTO   H49 1599   6.826   5.452   0.157
    4CHTO    N4 1600   6.949   5.295   0.100
    4CHTO   H41 1601   6.937   5.243   0.006
    4CHTO   H42 1602   7.052   5.285   0.133
    4CHTO   C22 1603   7.022   5.536   0.136
    4CHTO   H50 1604   7.109   5.521   0.071
    4CHTO   O14 1605   6.975   5.672   0.127
    4CHTO   C23 1606   6.951   5.714   5.626
    4CHTO   H51 1607   7.045   5.700   5.570
    4CHTO   C34 1608   6.919   5.864   5.625
    4CHTO   O23 1609   7.037   5.940   0.020
    4CHTO   H38 1610   7.016   6.032   0.018
    4CHTO   O16 1611   7.059   5.513   0.273
    4CHTO   C24 1612   7.157   5.624   0.347
    4CHTO   H52 1613   7.110   5.722   0.353
    4CHTO   C26 1614   7.294   5.637   0.276
    4CHTO   H54 1615   7.335   5.535   0.259
    4CHTO   O20 1616   7.273   5.698   0.147
    4CHTO   H36 1617   7.353   5.696   0.097
    4CHTO   C30 1618   7.396   5.719   0.360
    4CHTO   H58 1619   7.364   5.825   0.362
    4CHTO    N6 1620   7.533   5.718   0.301
    4CHTO   H45 1621   7.536   5.659   0.210
    4CHTO   H46 1622   7.566   5.818   0.280
    4CHTO   C33 1623   7.397   5.673   0.509
    4CHTO   H61 1624   7.439   5.571   0.515
    4CHTO   O18 1625   7.262   5.669   0.559
    4CHTO   C28 1626   7.177   5.575   0.492
    4CHTO   H56 1627   7.224   5.476   0.491
    4CHTO   C35 1628   7.043   5.565   0.567
    4CHTO   O24 1629   7.059   5.516   0.701
    4CHTO   H39 1630   6.975   5.512   0.743
    4CHTO    O9 1631   7.481   5.755   0.592
    4CHTO   C13 1632   7.545   5.677   0.718
    4CHTO   H26 1633   7.597   5.587   0.679
    4CHTO   C11 1634   7.431   5.640   0.821
    4CHTO   H24 1635   7.368   5.562   0.776
    4CHTO    O8 1636   7.346   5.754   0.847
    4CHTO    H3 1637   7.396   5.824   0.885
    4CHTO    C9 1638   7.499   5.583   0.949
    4CHTO   H22 1639   7.565   5.503   0.913
    4CHTO    N2 1640   7.404   5.515   1.041
    4CHTO   H10 1641   7.302   5.532   1.012
    4CHTO   H11 1642   7.425   5.409   1.044
    4CHTO    C7 1643   7.590   5.696   1.014
    4CHTO   H20 1644   7.683   5.641   1.041
    4CHTO    O4 1645   7.623   5.803   0.922
    4CHTO   C14 1646   7.660   5.763   0.789
    4CHTO   H27 1647   7.752   5.702   0.796
    4CHTO   C18 1648   7.698   5.893   0.714
    4CHTO   O13 1649   7.754   5.864   0.585
    4CHTO    H7 1650   7.777   5.944   0.542
    4CHTO    O2 1651   7.527   5.764   1.148
    4CHTO    C1 1652   7.625   5.824   1.235
    4CHTO   H14 1653   7.713   5.856   1.174
    4CHTO    C2 1654   7.676   5.724   1.347
    4CHTO   H15 1655   7.586   5.677   1.389
    4CHTO    O6 1656   7.758   5.624   1.284
    4CHTO    H1 1657   7.781   5.558   1.346
    4CHTO    C3 1658   7.757   5.800   1.463
    4CHTO   H16 1659   7.852   5.837   1.423
    4CHTO    N1 1660   7.789   5.709   1.579
    4CHTO    H8 1661   7.698   5.670   1.621
    4CHTO    H9 1662   7.852   5.628   1.545
    4CHTO    C4 1663   7.677   5.928   1.508
    4CHTO   H17 1664   7.582   5.897   1.552
    4CHTO    O1 1665   7.654   6.011   1.393
    4CHTO    C5 1666   7.564   5.953   1.297
    4CHTO   H18 1667   7.469   5.928   1.344
    4CHTO   C16 1668   7.539   6.064   1.191
    4CHTO   O11 1669   7.437   6.026   1.098
    4CHTO    H5 1670   7.426   6.095   1.035
    4CHTO    O3 1671   7.751   6.009   1.602
    4CHTO    C6 1672   7.676   6.120   1.661
    4CHTO   H19 1673   7.588   6.147   1.602
    4CHTO    C8 1674   7.627   6.086   1.805
    4CHTO   H21 1675   7.714   6.054   1.864
    4CHTO    O7 1676   7.534   5.976   1.796
    4CHTO    H2 1677   7.457   6.002   1.748
    4CHTO   C12 1678   7.562   6.213   1.874
    4CHTO   H25 1679   7.469   6.234   1.818
    4CHTO    N3 1680   7.522   6.187   2.016
    4CHTO   H12 1681   7.609   6.157   2.074
    4CHTO   H13 1682   7.447   6.109   2.019
    4CHTO   C15 1683   7.658   6.337   1.858
    4CHTO   H28 1684   7.747   6.327   1.921
    4CHTO   O10 1685   7.588   6.471   1.892
    4CHTO    H4 1686   7.510   6.481   1.840
    4CHTO    O5 1687   7.696   6.357   1.721
    4CHTO   C10 1688   7.767   6.246   1.665
    4CHTO   H23 1689   7.855   6.225   1.727
    4CHTO   C17 1690   7.820   6.286   1.526
    4CHTO   O12 1691   7.714   6.315   1.435
    4CHTO    H6 1692   7.750   6.338   1.351
    5CHTO  H203 1693   7.406   3.391   2.641
    5CHTO   O82 1694   7.472   3.455   2.625
    5CHTO  C123 1695   7.481   3.549   2.734
    5CHTO  H227 1696   7.563   3.620   2.713
    5CHTO   O77 1697   7.353   3.619   2.728
    5CHTO  C118 1698   7.341   3.726   2.824
    5CHTO  H222 1699   7.426   3.795   2.814
    5CHTO  C125 1700   7.208   3.805   2.795
    5CHTO   O84 1701   7.212   3.866   2.665
    5CHTO  H205 1702   7.209   3.799   2.599
    5CHTO  C114 1703   7.341   3.665   2.966
    5CHTO  H218 1704   7.257   3.596   2.974
    5CHTO  C116 1705   7.472   3.583   2.991
    5CHTO  H220 1706   7.557   3.654   2.998
    5CHTO   O79 1707   7.462   3.519   3.120
    5CHTO  H201 1708   7.392   3.457   3.120
    5CHTO  C120 1709   7.499   3.479   2.874
    5CHTO  H224 1710   7.424   3.399   2.886
    5CHTO   N21 1711   7.632   3.415   2.888
    5CHTO  H211 1712   7.708   3.473   2.838
    5CHTO  H212 1713   7.629   3.314   2.849
    5CHTO   O75 1714   7.327   3.775   3.057
    5CHTO  C112 1715   7.209   3.755   3.168
    5CHTO  H216 1716   7.207   3.649   3.200
    5CHTO   O73 1717   7.085   3.793   3.106
    5CHTO  C113 1718   6.971   3.790   3.193
    5CHTO  H217 1719   6.965   3.689   3.241
    5CHTO  C124 1720   6.843   3.808   3.111
    5CHTO   O83 1721   6.837   3.933   3.043
    5CHTO  H204 1722   6.828   4.003   3.105
    5CHTO  C109 1723   6.988   3.898   3.303
    5CHTO  H213 1724   6.999   3.994   3.251
    5CHTO  C110 1725   7.116   3.865   3.385
    5CHTO  H214 1726   7.098   3.772   3.440
    5CHTO   O78 1727   7.138   3.969   3.481
    5CHTO  H200 1728   7.209   3.947   3.538
    5CHTO  C111 1729   7.240   3.848   3.292
    5CHTO  H215 1730   7.268   3.946   3.252
    5CHTO   N19 1731   7.359   3.797   3.365
    5CHTO  H207 1732   7.339   3.699   3.406
    5CHTO  H208 1733   7.445   3.792   3.298
    5CHTO   O74 1734   6.868   3.903   3.386
    5CHTO  C115 1735   6.843   4.038   3.471
    5CHTO  H219 1736   6.910   4.044   3.558
    5CHTO   O76 1737   6.876   4.172   3.384
    5CHTO  C122 1738   6.781   4.205   3.282
    5CHTO  H226 1739   6.802   4.141   3.196
    5CHTO  C126 1740   6.808   4.352   3.234
    5CHTO   O85 1741   6.934   4.367   3.168
    5CHTO  H206 1742   7.003   4.359   3.230
    5CHTO  C121 1743   6.630   4.189   3.327
    5CHTO  H225 1744   6.574   4.282   3.302
    5CHTO   O81 1745   6.568   4.084   3.250
    5CHTO  H202 1746   6.608   4.002   3.269
    5CHTO  C119 1747   6.618   4.165   3.481
    5CHTO  H223 1748   6.673   4.247   3.527
    5CHTO  C117 1749   6.692   4.032   3.521
    5CHTO  H221 1750   6.652   3.942   3.476
    5CHTO   N20 1751   6.685   4.008   3.668
    5CHTO  H209 1752   6.732   3.914   3.693
    5CHTO  H210 1753   6.733   4.089   3.722
    5CHTO   O80 1754   6.468   4.189   3.540
    5CHTO  C103 1755   6.341   4.124   3.470
    5CHTO  H190 1756   6.346   4.137   3.362
    5CHTO  C101 1757   6.314   3.972   3.503
    5CHTO  H188 1758   6.331   3.955   3.609
    5CHTO   O68 1759   6.416   3.884   3.424
    5CHTO  H168 1760   6.402   3.893   3.331
    5CHTO   C99 1761   6.163   3.930   3.469
    5CHTO  H186 1762   6.147   3.940   3.359
    5CHTO   N17 1763   6.131   3.788   3.505
    5CHTO  H174 1764   6.109   3.730   3.417
    5CHTO  H175 1765   6.211   3.743   3.562
    5CHTO   C97 1766   6.066   4.031   3.536
    5CHTO  H184 1767   6.087   4.026   3.644
    5CHTO   O64 1768   6.095   4.162   3.483
    5CHTO  C104 1769   6.223   4.214   3.523
    5CHTO  H191 1770   6.229   4.221   3.632
    5CHTO  C108 1771   6.239   4.357   3.470
    5CHTO   O71 1772   6.142   4.446   3.528
    5CHTO  H171 1773   6.156   4.533   3.495
    5CHTO   O62 1774   5.925   4.002   3.518
    5CHTO   C91 1775   5.853   4.036   3.399
    5CHTO  H178 1776   5.885   4.134   3.367
    5CHTO   C92 1777   5.701   4.050   3.438
    5CHTO  H179 1778   5.691   4.117   3.525
    5CHTO   O66 1779   5.634   4.118   3.330
    5CHTO  H166 1780   5.546   4.138   3.355
    5CHTO   C93 1781   5.630   3.911   3.461
    5CHTO  H180 1782   5.522   3.926   3.444
    5CHTO   N16 1783   5.640   3.862   3.601
    5CHTO  H172 1784   5.587   3.768   3.611
    5CHTO  H173 1785   5.743   3.850   3.629
    5CHTO   C94 1786   5.683   3.803   3.358
    5CHTO  H181 1787   5.760   3.738   3.402
    5CHTO   O61 1788   5.745   3.866   3.244
    5CHTO   C95 1789   5.868   3.933   3.277
    5CHTO  H182 1790   5.942   3.858   3.303
    5CHTO  C106 1791   5.922   4.005   3.149
    5CHTO   O69 1792   5.955   3.911   3.047
    5CHTO  H169 1793   5.987   3.956   2.972
    5CHTO   O63 1794   5.565   3.716   3.308
    5CHTO   C96 1795   5.613   3.598   3.217
    5CHTO  H183 1796   5.722   3.603   3.208
    5CHTO   C98 1797   5.552   3.603   3.073
    5CHTO  H185 1798   5.550   3.707   3.036
    5CHTO   O67 1799   5.641   3.533   2.984
    5CHTO  H167 1800   5.613   3.544   2.895
    5CHTO  C102 1801   5.408   3.535   3.064
    5CHTO  H189 1802   5.384   3.532   2.956
    5CHTO   N18 1803   5.297   3.612   3.125
    5CHTO  H176 1804   5.316   3.628   3.230
    5CHTO  H177 1805   5.286   3.708   3.075
    5CHTO  C105 1806   5.419   3.389   3.117
    5CHTO  H192 1807   5.328   3.362   3.172
    5CHTO   O65 1808   5.533   3.360   3.200
    5CHTO  C100 1809   5.575   3.463   3.291
    5CHTO  H187 1810   5.491   3.482   3.360
    5CHTO  C107 1811   5.692   3.406   3.374
    5CHTO   O70 1812   5.727   3.494   3.482
    5CHTO  H170 1813   5.800   3.458   3.529
    5CHTO   O57 1814   5.426   3.304   2.986
    5CHTO   C85 1815   5.366   3.173   2.979
    5CHTO  H157 1816   5.260   3.187   3.008
    5CHTO   C83 1817   5.428   3.076   3.085
    5CHTO  H155 1818   5.407   3.116   3.185
    5CHTO   O56 1819   5.571   3.074   3.072
    5CHTO  H135 1820   5.607   3.159   3.090
    5CHTO   C81 1821   5.360   2.937   3.072
    5CHTO  H153 1822   5.253   2.950   3.083
    5CHTO   N14 1823   5.397   2.842   3.180
    5CHTO  H141 1824   5.502   2.820   3.175
    5CHTO  H142 1825   5.375   2.885   3.275
    5CHTO   C79 1826   5.387   2.879   2.928
    5CHTO  H151 1827   5.332   2.785   2.921
    5CHTO   O52 1828   5.332   2.969   2.827
    5CHTO   C86 1829   5.380   3.107   2.837
    5CHTO  H158 1830   5.487   3.100   2.807
    5CHTO   C90 1831   5.312   3.194   2.729
    5CHTO   O60 1832   5.351   3.153   2.598
    5CHTO  H138 1833   5.312   3.071   2.577
    5CHTO   O50 1834   5.526   2.853   2.900
    5CHTO   C73 1835   5.602   2.754   2.829
    5CHTO  H145 1836   5.539   2.705   2.753
    5CHTO   C74 1837   5.655   2.646   2.927
    5CHTO  H146 1838   5.568   2.602   2.978
    5CHTO   O54 1839   5.713   2.539   2.850
    5CHTO  H133 1840   5.789   2.569   2.804
    5CHTO   C75 1841   5.755   2.713   3.030
    5CHTO  H147 1842   5.699   2.786   3.090
    5CHTO   N13 1843   5.812   2.618   3.129
    5CHTO  H139 1844   5.870   2.541   3.078
    5CHTO  H140 1845   5.877   2.670   3.197
    5CHTO   C76 1846   5.869   2.794   2.951
    5CHTO  H148 1847   5.931   2.722   2.898
    5CHTO   O49 1848   5.809   2.887   2.854
    5CHTO   C77 1849   5.722   2.823   2.758
    5CHTO  H149 1850   5.778   2.748   2.703
    5CHTO   C88 1851   5.677   2.926   2.654
    5CHTO   O58 1852   5.600   2.862   2.542
    5CHTO  H136 1853   5.519   2.828   2.576
    5CHTO   O51 1854   5.954   2.884   3.055
    5CHTO   C78 1855   6.061   2.984   2.995
    5CHTO  H150 1856   6.024   3.031   2.901
    5CHTO   C80 1857   6.194   2.911   2.964
    5CHTO  H152 1858   6.222   2.850   3.053
    5CHTO   O55 1859   6.171   2.820   2.855
    5CHTO  H134 1860   6.149   2.866   2.777
    5CHTO   C84 1861   6.312   3.013   2.932
    5CHTO  H156 1862   6.287   3.065   2.840
    5CHTO   N15 1863   6.444   2.945   2.909
    5CHTO  H143 1864   6.519   3.018   2.886
    5CHTO  H144 1865   6.474   2.891   2.997
    5CHTO   C87 1866   6.319   3.116   3.047
    5CHTO  H159 1867   6.340   3.064   3.141
    5CHTO   O53 1868   6.185   3.186   3.054
    5CHTO   C82 1869   6.081   3.098   3.098
    5CHTO  H154 1870   6.105   3.057   3.196
    5CHTO   C89 1871   5.953   3.183   3.114
    5CHTO   O59 1872   5.849   3.113   3.182
    5CHTO  H137 1873   5.873   3.100   3.272
    5CHTO   O45 1874   6.432   3.232   3.024
    5CHTO   C67 1875   6.468   3.297   3.147
    5CHTO  H124 1876   6.384   3.291   3.217
    5CHTO   C65 1877   6.593   3.228   3.214
    5CHTO  H122 1878   6.650   3.182   3.132
    5CHTO   O44 1879   6.542   3.122   3.298
    5CHTO  H102 1880   6.502   3.159   3.375
    5CHTO   C63 1881   6.693   3.331   3.280
    5CHTO  H120 1882   6.749   3.380   3.200
    5CHTO   N11 1883   6.804   3.272   3.362
    5CHTO  H108 1884   6.810   3.320   3.458
    5CHTO  H109 1885   6.898   3.280   3.312
    5CHTO   C61 1886   6.611   3.445   3.350
    5CHTO  H118 1887   6.684   3.519   3.386
    5CHTO   O40 1888   6.524   3.515   3.256
    5CHTO   C68 1889   6.495   3.451   3.127
    5CHTO  H125 1890   6.582   3.466   3.060
    5CHTO   C72 1891   6.375   3.522   3.063
    5CHTO   O48 1892   6.400   3.661   3.036
    5CHTO  H105 1893   6.464   3.668   2.967
    5CHTO   O38 1894   6.533   3.395   3.461
    5CHTO   C55 1895   6.456   3.490   3.537
    5CHTO  H112 1896   6.427   3.575   3.473
    5CHTO   C56 1897   6.538   3.539   3.665
    5CHTO  H113 1898   6.569   3.448   3.720
    5CHTO   O42 1899   6.659   3.605   3.624
    5CHTO  H100 1900   6.639   3.681   3.573
    5CHTO   C57 1901   6.448   3.631   3.757
    5CHTO  H114 1902   6.431   3.724   3.701
    5CHTO   N10 1903   6.513   3.670   3.885
    5CHTO  H106 1904   6.494   3.597   3.961
    5CHTO  H107 1905   6.620   3.680   3.871
    5CHTO   C58 1906   6.310   3.565   3.783
    5CHTO  H115 1907   6.324   3.475   3.847
    5CHTO   O37 1908   6.248   3.524   3.659
    5CHTO   C59 1909   6.323   3.426   3.585
    5CHTO  H116 1910   6.342   3.339   3.647
    5CHTO   C70 1911   6.239   3.381   3.464
    5CHTO   O46 1912   6.119   3.312   3.502
    5CHTO  H103 1913   6.141   3.228   3.540
    5CHTO   O39 1914   6.207   3.674   3.861
    5CHTO   C60 1915   6.065   3.648   3.862
    5CHTO  H117 1916   6.026   3.667   3.762
    5CHTO   C62 1917   6.029   3.501   3.899
    5CHTO  H119 1918   6.074   3.436   3.821
    5CHTO   O43 1919   6.089   3.468   4.026
    5CHTO  H101 1920   6.073   3.378   4.046
    5CHTO   C66 1921   5.869   3.484   3.896
    5CHTO  H123 1922   5.833   3.513   3.797
    5CHTO   N12 1923   5.830   3.342   3.912
    5CHTO  H110 1924   5.723   3.332   3.905
    5CHTO  H111 1925   5.866   3.304   4.007
    5CHTO   C69 1926   5.804   3.577   4.000
    5CHTO  H126 1927   5.840   3.553   4.103
    5CHTO   O41 1928   5.842   3.723   3.964
    5CHTO   C64 1929   5.995   3.747   3.959
    5CHTO  H121 1930   6.038   3.733   4.061
    5CHTO   C71 1931   6.020   3.893   3.916
    5CHTO   O47 1932   5.968   3.984   4.013
    5CHTO  H104 1933   6.019   3.980   4.092
    5CHTO   O34 1934   5.642   3.567   4.001
    5CHTO   C49 1935   5.537   3.466   4.060
    5CHTO   H91 1936   5.592   3.375   4.087
    5CHTO   C47 1937   5.435   3.433   3.948
    5CHTO   H89 1938   5.371   3.351   3.988
    5CHTO   O33 1939   5.506   3.384   3.833
    5CHTO   H70 1940   5.544   3.301   3.851
    5CHTO   C45 1941   5.347   3.565   3.920
    5CHTO   H87 1942   5.415   3.649   3.900
    5CHTO    N8 1943   5.257   3.550   3.803
    5CHTO   H75 1944   5.315   3.525   3.715
    5CHTO   H76 1945   5.203   3.641   3.787
    5CHTO   C43 1946   5.269   3.603   4.055
    5CHTO   H85 1947   5.214   3.695   4.034
    5CHTO   O29 1948   5.362   3.621   4.164
    5CHTO   C50 1949   5.465   3.522   4.185
    5CHTO   H92 1950   5.542   3.569   4.247
    5CHTO   C54 1951   5.414   3.407   4.277
    5CHTO   O36 1952   5.376   3.455   4.407
    5CHTO   H72 1953   5.452   3.483   4.454
    5CHTO   O27 1954   5.168   3.505   4.089
    5CHTO   C37 1955   5.065   3.413   4.127
    5CHTO   H79 1956   4.976   3.429   4.064
    5CHTO   C38 1957   5.112   3.266   4.104
    5CHTO   H80 1958   5.214   3.255   4.145
    5CHTO   O31 1959   5.119   3.244   3.961
    5CHTO   H68 1960   5.188   3.296   3.924
    5CHTO   C39 1961   5.017   3.159   4.172
    5CHTO   H81 1962   4.925   3.157   4.115
    5CHTO    N7 1963   5.076   3.020   4.168
    5CHTO   H73 1964   5.008   2.953   4.118
    5CHTO   H74 1965   5.099   2.985   4.267
    5CHTO   C40 1966   4.980   3.203   4.319
    5CHTO   H82 1967   5.068   3.194   4.383
    5CHTO   O26 1968   4.927   3.337   4.317
    5CHTO   C41 1969   5.025   3.436   4.275
    5CHTO   H83 1970   5.115   3.428   4.339
    5CHTO   C52 1971   4.965   3.577   4.298
    5CHTO   O35 1972   4.838   3.601   4.221
    5CHTO   H71 1973   4.771   3.544   4.253
    5CHTO   O28 1974   4.874   3.121   4.374
    5CHTO   C42 1975   4.857   3.105   4.519
    5CHTO   H84 1976   4.764   3.049   4.527
    5CHTO   C44 1977   4.835   3.237   4.600
    5CHTO   H86 1978   4.919   3.305   4.580
    5CHTO   O32 1979   4.716   3.299   4.549
    5CHTO   H69 1980   4.640   3.246   4.567
    5CHTO   C48 1981   4.829   3.213   4.757
    5CHTO   H90 1982   4.740   3.154   4.780
    5CHTO    N9 1983   4.815   3.342   4.832
    5CHTO   H77 1984   4.725   3.341   4.892
    5CHTO   H78 1985   4.901   3.360   4.895
    5CHTO   C51 1986   4.956   3.131   4.798
    5CHTO   H93 1987   5.043   3.188   4.765
    5CHTO   O30 1988   4.948   3.005   4.731
    5CHTO   C46 1989   4.969   3.016   4.583
    5CHTO   H88 1990   5.067   3.061   4.564
    5CHTO   C53 1991   4.965   2.873   4.525
    5CHTO   O72 1992   5.064   2.790   4.588
    5CHTO  H199 1993   5.041   2.775   4.677
    5CHTO   O22 1994   4.967   3.096   4.937
    5CHTO   C31 1995   5.101   3.093   5.001
    5CHTO   H59 1996   5.088   3.032   5.093
    5CHTO   C29 1997   5.212   3.023   4.917
    5CHTO   H57 1998   5.203   3.060   4.814
    5CHTO   O21 1999   5.180   2.883   4.909
    5CHTO   H37 2000   5.191   2.842   4.993
    5CHTO   C27 2001   5.358   3.051   4.968
    5CHTO   H55 2002   5.371   3.003   5.066
    5CHTO    N5 2003   5.463   2.998   4.876
    5CHTO   H43 2004   5.419   2.950   4.790
    5CHTO   H44 2005   5.527   2.928   4.928
    5CHTO   C25 2006   5.371   3.205   4.987
    5CHTO   H53 2007   5.342   3.255   4.892
    5CHTO   O17 2008   5.279   3.245   5.091
    5CHTO   C32 2009   5.141   3.236   5.052
    5CHTO   H60 2010   5.121   3.309   4.972
    5CHTO   C36 2011   5.060   3.277   5.177
    5CHTO   O25 2012   4.920   3.291   5.151
    5CHTO   H40 2013   4.882   3.207   5.132
    5CHTO   O15 2014   5.513   3.253   5.027
    5CHTO   C19 2015   5.572   3.385   5.011
    5CHTO   H47 2016   5.485   3.453   5.011
    5CHTO   C20 2017   5.665   3.424   5.130
    5CHTO   H48 2018   5.743   3.348   5.148
    5CHTO   O19 2019   5.582   3.427   5.248
    5CHTO   H35 2020   5.518   3.495   5.242
    5CHTO   C21 2021   5.738   3.562   5.107
    5CHTO   H49 2022   5.663   3.642   5.107
    5CHTO    N4 2023   5.834   3.596   5.216
    5CHTO   H41 2024   5.912   3.521   5.221
    5CHTO   H42 2025   5.879   3.692   5.197
    5CHTO   C22 2026   5.804   3.560   4.967
    5CHTO   H50 2027   5.881   3.483   4.966
    5CHTO   O14 2028   5.705   3.534   4.867
    5CHTO   C23 2029   5.644   3.405   4.873
    5CHTO   H51 2030   5.721   3.329   4.856
    5CHTO   C34 2031   5.545   3.397   4.756
    5CHTO   O23 2032   5.610   3.413   4.630
    5CHTO   H38 2033   5.547   3.407   4.561
    5CHTO   O16 2034   5.859   3.688   4.928
    5CHTO   C24 2035   5.988   3.678   4.836
    5CHTO   H52 2036   6.012   3.575   4.809
    5CHTO   C26 2037   6.105   3.740   4.914
    5CHTO   H54 2038   6.076   3.842   4.948
    5CHTO   O20 2039   6.128   3.659   5.032
    5CHTO   H36 2040   6.192   3.701   5.087
    5CHTO   C30 2041   6.234   3.751   4.827
    5CHTO   H58 2042   6.276   3.651   4.812
    5CHTO    N6 2043   6.341   3.830   4.895
    5CHTO   H45 2044   6.429   3.769   4.911
    5CHTO   H46 2045   6.308   3.868   4.991
    5CHTO   C33 2046   6.203   3.809   4.685
    5CHTO   H61 2047   6.178   3.916   4.694
    5CHTO   O18 2048   6.089   3.741   4.628
    5CHTO   C28 2049   5.968   3.756   4.703
    5CHTO   H56 2050   5.948   3.860   4.725
    5CHTO   C35 2051   5.853   3.698   4.617
    5CHTO   O24 2052   5.723   3.736   4.664
    5CHTO   H39 2053   5.706   3.694   4.746
    5CHTO    O9 2054   6.317   3.804   4.596
    5CHTO   C13 2055   6.371   3.651   4.559
    5CHTO   H26 2056   6.295   3.578   4.594
    5CHTO   C11 2057   6.512   3.628   4.628
    5CHTO   H24 2058   6.495   3.611   4.736
    5CHTO    O8 2059   6.594   3.746   4.615
    5CHTO    H3 2060   6.555   3.818   4.661
    5CHTO    C9 2061   6.580   3.503   4.567
    5CHTO   H22 2062   6.506   3.422   4.577
    5CHTO    N2 2063   6.698   3.457   4.645
    5CHTO   H10 2064   6.678   3.361   4.689
    5CHTO   H11 2065   6.786   3.453   4.582
    5CHTO    C7 2066   6.604   3.528   4.412
    5CHTO   H20 2067   6.580   3.429   4.367
    5CHTO    O4 2068   6.517   3.628   4.355
    5CHTO   C14 2069   6.381   3.626   4.401
    5CHTO   H27 2070   6.338   3.526   4.379
    5CHTO   C18 2071   6.299   3.728   4.319
    5CHTO   O13 2072   6.290   3.689   4.181
    5CHTO    H7 2073   6.237   3.750   4.134
    5CHTO    O2 2074   6.759   3.568   4.372
    5CHTO    C1 2075   6.796   3.514   4.244
    5CHTO   H14 2076   6.704   3.487   4.187
    5CHTO    C2 2077   6.887   3.386   4.254
    5CHTO   H15 2078   6.980   3.417   4.306
    5CHTO    O6 2079   6.820   3.286   4.333
    5CHTO    H1 2080   6.740   3.259   4.291
    5CHTO    C3 2081   6.922   3.333   4.107
    5CHTO   H16 2082   6.829   3.293   4.065
    5CHTO    N1 2083   7.020   3.220   4.110
    5CHTO    H8 2084   7.040   3.185   4.010
    5CHTO    H9 2085   6.981   3.138   4.170
    5CHTO    C4 2086   6.967   3.449   4.011
    5CHTO   H17 2087   7.072   3.473   4.030
    5CHTO    O1 2088   6.886   3.567   4.024
    5CHTO    C5 2089   6.871   3.619   4.158
    5CHTO   H18 2090   6.968   3.638   4.202
    5CHTO   C16 2091   6.793   3.753   4.149
    5CHTO   O11 2092   6.866   3.851   4.074
    5CHTO    H5 2093   6.814   3.929   4.066
    5CHTO    O3 2094   6.945   3.411   3.873
    5CHTO    C6 2095   7.058   3.421   3.779
    5CHTO   H19 2096   7.153   3.437   3.829
    5CHTO    C8 2097   7.069   3.288   3.697
    5CHTO   H21 2098   6.971   3.266   3.654
    5CHTO    O7 2099   7.105   3.183   3.789
    5CHTO    H2 2100   7.034   3.164   3.847
    5CHTO   C12 2101   7.174   3.301   3.579
    5CHTO   H25 2102   7.273   3.307   3.627
    5CHTO    N3 2103   7.176   3.178   3.493
    5CHTO   H12 2104   7.252   3.188   3.416
    5CHTO   H13 2105   7.079   3.162   3.448
    5CHTO   C15 2106   7.150   3.433   3.498
    5CHTO   H28 2107   7.059   3.427   3.437
    5CHTO   O10 2108   7.270   3.468   3.408
    5CHTO    H4 2109   7.249   3.541   3.352
    5CHTO    O5 2110   7.142   3.547   3.585
    5CHTO   C10 2111   7.036   3.540   3.681
    5CHTO   H23 2112   6.941   3.527   3.628
    5CHTO   C17 2113   7.029   3.675   3.754
    5CHTO   O12 2114   6.979   3.778   3.669
    5CHTO    H6 2115   6.976   3.859   3.717
    6CHTO  H203 2116   7.173   5.013   0.657
    6CHTO   O82 2117   7.128   5.016   0.739
    6CHTO  C123 2118   7.026   5.117   0.737
    6CHTO  H227 2119   7.069   5.210   0.697
    6CHTO   O77 2120   6.926   5.063   0.645
    6CHTO  C118 2121   6.816   5.152   0.618
    6CHTO  H222 2122   6.854   5.248   0.580
    6CHTO  C125 2123   6.730   5.083   0.506
    6CHTO   O84 2124   6.633   5.172   0.450
    6CHTO  H205 2125   6.586   5.128   0.381
    6CHTO  C114 2126   6.738   5.175   0.749
    6CHTO  H218 2127   6.699   5.079   0.784
    6CHTO  C116 2128   6.831   5.231   0.861
    6CHTO  H220 2129   6.861   5.335   0.835
    6CHTO   O79 2130   6.755   5.241   0.984
    6CHTO  H201 2131   6.728   5.156   1.013
    6CHTO  C120 2132   6.960   5.141   0.879
    6CHTO  H224 2133   6.926   5.044   0.921
    6CHTO   N21 2134   7.056   5.200   0.976
    6CHTO  H211 2135   7.158   5.171   0.953
    6CHTO  H212 2136   7.031   5.168   1.077
    6CHTO   O75 2137   6.630   5.264   0.714
    6CHTO  C112 2138   6.489   5.236   0.795
    6CHTO  H216 2139   6.505   5.255   0.903
    6CHTO   O73 2140   6.449   5.101   0.769
    6CHTO  C113 2141   6.330   5.059   0.837
    6CHTO  H217 2142   6.344   5.071   0.947
    6CHTO  C124 2143   6.316   4.909   0.808
    6CHTO   O83 2144   6.216   4.844   0.887
    6CHTO  H204 2145   6.217   4.752   0.869
    6CHTO  C109 2146   6.209   5.144   0.787
    6CHTO  H213 2147   6.200   5.125   0.679
    6CHTO  C110 2148   6.240   5.296   0.808
    6CHTO  H214 2149   6.245   5.316   0.915
    6CHTO   O78 2150   6.131   5.372   0.753
    6CHTO  H200 2151   6.054   5.359   0.804
    6CHTO  C111 2152   6.376   5.333   0.742
    6CHTO  H215 2153   6.367   5.318   0.633
    6CHTO   N19 2154   6.414   5.476   0.762
    6CHTO  H207 2155   6.426   5.526   0.667
    6CHTO  H208 2156   6.504   5.486   0.820
    6CHTO   O74 2157   6.081   5.106   0.850
    6CHTO  C115 2158   6.066   5.107   1.016
    6CHTO  H219 2159   6.149   5.055   1.064
    6CHTO   O76 2160   6.071   5.253   1.074
    6CHTO  C122 2161   5.952   5.328   1.052
    6CHTO  H226 2162   5.935   5.333   0.944
    6CHTO  C126 2163   5.974   5.476   1.099
    6CHTO   O85 2164   6.079   5.542   1.028
    6CHTO  H206 2165   6.162   5.505   1.051
    6CHTO  C121 2166   5.827   5.264   1.125
    6CHTO  H225 2167   5.808   5.319   1.219
    6CHTO   O81 2168   5.712   5.280   1.040
    6CHTO  H202 2169   5.691   5.371   1.030
    6CHTO  C119 2170   5.847   5.112   1.159
    6CHTO  H223 2171   5.904   5.110   1.252
    6CHTO  C117 2172   5.929   5.034   1.049
    6CHTO  H221 2173   5.878   5.025   0.953
    6CHTO   N20 2174   5.953   4.892   1.094
    6CHTO  H209 2175   5.904   4.823   1.027
    6CHTO  H210 2176   6.058   4.870   1.101
    6CHTO   O80 2177   5.707   5.041   1.204
    6CHTO  C103 2178   5.662   5.040   1.356
    6CHTO  H190 2179   5.726   4.974   1.415
    6CHTO  C101 2180   5.649   5.180   1.429
    6CHTO  H188 2181   5.605   5.252   1.359
    6CHTO   O68 2182   5.793   5.231   1.466
    6CHTO  H168 2183   5.844   5.242   1.388
    6CHTO   C99 2184   5.556   5.173   1.560
    6CHTO  H186 2185   5.607   5.112   1.637
    6CHTO   N17 2186   5.527   5.306   1.622
    6CHTO  H174 2187   5.472   5.369   1.553
    6CHTO  H175 2188   5.619   5.354   1.652
    6CHTO   C97 2189   5.424   5.097   1.527
    6CHTO  H184 2190   5.366   5.156   1.454
    6CHTO   O64 2191   5.457   4.967   1.476
    6CHTO  C104 2192   5.520   4.971   1.347
    6CHTO  H191 2193   5.459   5.025   1.275
    6CHTO  C108 2194   5.532   4.827   1.293
    6CHTO   O71 2195   5.403   4.768   1.273
    6CHTO  H171 2196   5.359   4.810   1.202
    6CHTO   O62 2197   5.344   5.065   1.643
    6CHTO   C91 2198   5.200   5.060   1.628
    6CHTO  H178 2199   5.165   5.163   1.632
    6CHTO   C92 2200   5.143   4.988   1.756
    6CHTO  H179 2201   5.181   5.038   1.846
    6CHTO   O66 2202   5.001   5.006   1.761
    6CHTO  H166 2203   4.980   5.097   1.772
    6CHTO   C93 2204   5.173   4.833   1.757
    6CHTO  H180 2205   5.092   4.784   1.813
    6CHTO   N16 2206   5.297   4.797   1.830
    6CHTO  H172 2207   5.289   4.827   1.934
    6CHTO  H173 2208   5.383   4.845   1.784
    6CHTO   C94 2209   5.175   4.775   1.610
    6CHTO  H181 2210   5.275   4.778   1.566
    6CHTO   O61 2211   5.091   4.854   1.524
    6CHTO   C95 2212   5.140   4.987   1.498
    6CHTO  H182 2213   5.216   4.981   1.420
    6CHTO  C106 2214   5.022   5.070   1.437
    6CHTO   O69 2215   4.981   5.018   1.310
    6CHTO  H169 2216   5.048   5.034   1.246
    6CHTO   O63 2217   5.120   4.630   1.610
    6CHTO   C96 2218   5.190   4.538   1.504
    6CHTO  H183 2219   5.291   4.576   1.486
    6CHTO   C98 2220   5.119   4.529   1.366
    6CHTO  H185 2221   5.016   4.491   1.380
    6CHTO   O67 2222   5.105   4.660   1.310
    6CHTO  H167 2223   5.046   4.712   1.362
    6CHTO  C102 2224   5.202   4.434   1.266
    6CHTO  H189 2225   5.289   4.494   1.235
    6CHTO   N18 2226   5.132   4.400   1.140
    6CHTO  H176 2227   5.109   4.490   1.084
    6CHTO  H177 2228   5.040   4.347   1.162
    6CHTO  C105 2229   5.255   4.308   1.341
    6CHTO  H192 2230   5.233   4.218   1.283
    6CHTO   O65 2231   5.198   4.286   1.471
    6CHTO  C100 2232   5.203   4.394   1.567
    6CHTO  H187 2233   5.116   4.380   1.634
    6CHTO  C107 2234   5.329   4.384   1.656
    6CHTO   O70 2235   5.329   4.264   1.734
    6CHTO  H170 2236   5.265   4.270   1.802
    6CHTO   O57 2237   5.413   4.329   1.347
    6CHTO   C85 2238   5.500   4.229   1.292
    6CHTO  H157 2239   5.466   4.213   1.187
    6CHTO   C83 2240   5.480   4.091   1.364
    6CHTO  H155 2241   5.379   4.056   1.341
    6CHTO   O56 2242   5.483   4.109   1.507
    6CHTO  H135 2243   5.569   4.137   1.535
    6CHTO   C81 2244   5.583   3.989   1.310
    6CHTO  H153 2245   5.571   3.983   1.202
    6CHTO   N14 2246   5.557   3.850   1.357
    6CHTO  H141 2247   5.625   3.782   1.310
    6CHTO  H142 2248   5.456   3.822   1.332
    6CHTO   C79 2249   5.729   4.039   1.340
    6CHTO  H151 2250   5.798   3.967   1.296
    6CHTO   O52 2251   5.751   4.165   1.270
    6CHTO   C86 2252   5.653   4.270   1.298
    6CHTO  H158 2253   5.680   4.305   1.400
    6CHTO   C90 2254   5.679   4.391   1.205
    6CHTO   O60 2255   5.669   4.354   1.067
    6CHTO  H138 2256   5.686   4.429   1.013
    6CHTO   O50 2257   5.763   4.053   1.480
    6CHTO   C73 2258   5.865   4.057   1.582
    6CHTO  H145 2259   5.919   3.961   1.583
    6CHTO   C74 2260   5.800   4.079   1.722
    6CHTO  H146 2261   5.727   3.997   1.737
    6CHTO   O54 2262   5.903   4.060   1.822
    6CHTO  H133 2263   5.866   4.069   1.908
    6CHTO   C75 2264   5.731   4.221   1.727
    6CHTO  H147 2265   5.649   4.222   1.653
    6CHTO   N13 2266   5.667   4.252   1.857
    6CHTO  H139 2267   5.562   4.273   1.844
    6CHTO  H140 2268   5.714   4.337   1.905
    6CHTO   C76 2269   5.834   4.335   1.681
    6CHTO  H148 2270   5.909   4.346   1.759
    6CHTO   O49 2271   5.901   4.300   1.555
    6CHTO   C77 2272   5.967   4.172   1.558
    6CHTO  H149 2273   6.040   4.172   1.638
    6CHTO   C88 2274   6.049   4.152   1.429
    6CHTO   O58 2275   6.156   4.252   1.417
    6CHTO  H136 2276   6.204   4.237   1.338
    6CHTO   O51 2277   5.755   4.474   1.649
    6CHTO   C78 2278   5.848   4.601   1.674
    6CHTO  H150 2279   5.953   4.571   1.689
    6CHTO   C80 2280   5.801   4.680   1.797
    6CHTO  H152 2281   5.695   4.712   1.781
    6CHTO   O55 2282   5.805   4.590   1.910
    6CHTO  H134 2283   5.738   4.525   1.902
    6CHTO   C84 2284   5.892   4.807   1.822
    6CHTO  H156 2285   5.992   4.772   1.847
    6CHTO   N15 2286   5.845   4.892   1.937
    6CHTO  H143 2287   5.843   4.833   2.027
    6CHTO  H144 2288   5.911   4.975   1.951
    6CHTO   C87 2289   5.905   4.892   1.693
    6CHTO  H159 2290   5.812   4.947   1.674
    6CHTO   O53 2291   5.936   4.801   1.569
    6CHTO   C82 2292   5.844   4.693   1.550
    6CHTO  H154 2293   5.743   4.733   1.535
    6CHTO   C89 2294   5.882   4.618   1.421
    6CHTO   O59 2295   6.013   4.560   1.427
    6CHTO  H137 2296   6.013   4.490   1.490
    6CHTO   O45 2297   6.029   5.006   1.711
    6CHTO   C67 2298   6.157   4.968   1.657
    6CHTO  H124 2299   6.173   4.861   1.674
    6CHTO   C65 2300   6.164   4.997   1.503
    6CHTO  H122 2301   6.065   5.032   1.473
    6CHTO   O44 2302   6.192   4.873   1.434
    6CHTO  H102 2303   6.123   4.812   1.448
    6CHTO   C63 2304   6.262   5.116   1.471
    6CHTO  H120 2305   6.229   5.203   1.526
    6CHTO   N11 2306   6.258   5.165   1.330
    6CHTO  H108 2307   6.217   5.263   1.325
    6CHTO  H109 2308   6.357   5.165   1.287
    6CHTO   C61 2309   6.405   5.079   1.526
    6CHTO  H118 2310   6.467   5.170   1.520
    6CHTO   O40 2311   6.402   5.039   1.666
    6CHTO   C68 2312   6.273   5.041   1.736
    6CHTO  H125 2313   6.245   5.148   1.751
    6CHTO   C72 2314   6.293   4.980   1.877
    6CHTO   O48 2315   6.354   4.851   1.874
    6CHTO  H105 2316   6.443   4.858   1.845
    6CHTO   O38 2317   6.467   4.968   1.457
    6CHTO   C55 2318   6.592   4.987   1.387
    6CHTO  H112 2319   6.621   5.093   1.389
    6CHTO   C56 2320   6.576   4.933   1.238
    6CHTO  H113 2321   6.523   4.836   1.245
    6CHTO   O42 2322   6.488   5.020   1.165
    6CHTO  H100 2323   6.469   4.983   1.080
    6CHTO   C57 2324   6.714   4.916   1.163
    6CHTO  H114 2325   6.754   5.016   1.145
    6CHTO   N10 2326   6.702   4.849   1.030
    6CHTO  H106 2327   6.621   4.777   1.031
    6CHTO  H107 2328   6.793   4.798   1.004
    6CHTO   C58 2329   6.811   4.839   1.256
    6CHTO  H115 2330   6.769   4.738   1.277
    6CHTO   O37 2331   6.826   4.911   1.380
    6CHTO   C59 2332   6.706   4.910   1.460
    6CHTO  H116 2333   6.676   4.807   1.480
    6CHTO   C70 2334   6.739   4.977   1.594
    6CHTO   O46 2335   6.839   4.907   1.670
    6CHTO  H103 2336   6.804   4.826   1.700
    6CHTO   O39 2337   6.961   4.825   1.188
    6CHTO   C60 2338   7.041   4.720   1.245
    6CHTO  H117 2339   7.039   4.728   1.354
    6CHTO   C62 2340   6.990   4.578   1.205
    6CHTO  H119 2341   6.885   4.570   1.241
    6CHTO   O43 2342   6.988   4.566   1.061
    6CHTO  H101 2343   6.951   4.484   1.036
    6CHTO   C66 2344   7.079   4.466   1.278
    6CHTO  H123 2345   7.074   4.483   1.385
    6CHTO   N12 2346   7.029   4.328   1.256
    6CHTO  H110 2347   7.002   4.282   1.350
    6CHTO  H111 2348   6.945   4.326   1.188
    6CHTO   C69 2349   7.227   4.482   1.235
    6CHTO  H126 2350   7.238   4.461   1.126
    6CHTO   O41 2351   7.276   4.629   1.265
    6CHTO   C64 2352   7.189   4.736   1.200
    6CHTO  H121 2353   7.194   4.725   1.090
    6CHTO   C71 2354   7.244   4.875   1.237
    6CHTO   O47 2355   7.373   4.897   1.177
    6CHTO  H104 2356   7.364   4.905   1.084
    6CHTO   O34 2357   7.319   4.384   1.313
    6CHTO   C49 2358   7.451   4.326   1.271
    6CHTO   H91 2359   7.432   4.261   1.186
    6CHTO   C47 2360   7.506   4.245   1.391
    6CHTO   H89 2361   7.598   4.195   1.351
    6CHTO   O33 2362   7.413   4.143   1.430
    6CHTO   H70 2363   7.402   4.080   1.361
    6CHTO   C45 2364   7.541   4.342   1.516
    6CHTO   H87 2365   7.453   4.347   1.581
    6CHTO    N8 2366   7.653   4.281   1.593
    6CHTO   H75 2367   7.625   4.181   1.624
    6CHTO   H76 2368   7.675   4.341   1.680
    6CHTO   C43 2369   7.566   4.494   1.466
    6CHTO   H85 2370   7.466   4.537   1.457
    6CHTO   O29 2371   7.635   4.493   1.339
    6CHTO   C50 2372   7.556   4.436   1.232
    6CHTO   H92 2373   7.502   4.519   1.184
    6CHTO   C54 2374   7.651   4.388   1.119
    6CHTO   O36 2375   7.747   4.293   1.166
    6CHTO   H72 2376   7.802   4.266   1.095
    6CHTO   O27 2377   7.632   4.577   1.562
    6CHTO   C37 2378   7.684   4.711   1.571
    6CHTO   H79 2379   7.776   4.720   1.511
    6CHTO   C38 2380   7.584   4.816   1.514
    6CHTO   H80 2381   7.485   4.797   1.559
    6CHTO   O31 2382   7.575   4.795   1.372
    6CHTO   H68 2383   7.533   4.714   1.353
    6CHTO   C39 2384   7.628   4.964   1.546
    6CHTO   H81 2385   7.720   4.983   1.490
    6CHTO    N7 2386   7.527   5.068   1.505
    6CHTO   H73 2387   7.441   5.022   1.460
    6CHTO   H74 2388   7.573   5.139   1.437
    6CHTO   C40 2389   7.664   4.978   1.699
    6CHTO   H82 2390   7.574   4.970   1.760
    6CHTO   O26 2391   7.762   4.879   1.735
    6CHTO   C41 2392   7.718   4.741   1.719
    6CHTO   H83 2393   7.629   4.723   1.781
    6CHTO   C52 2394   7.830   4.648   1.770
    6CHTO   O35 2395   7.862   4.671   1.911
    6CHTO   H71 2396   7.928   4.610   1.939
    6CHTO   O28 2397   7.734   5.100   1.729
    6CHTO   C42 2398   7.714   5.175   1.854
    6CHTO   H84 2399   7.808   5.228   1.867
    6CHTO   C44 2400   7.693   5.091   1.985
    6CHTO   H86 2401   7.605   5.027   1.972
    6CHTO   O32 2402   7.808   5.005   2.000
    6CHTO   H69 2403   7.885   5.056   2.015
    6CHTO   C48 2404   7.669   5.182   2.112
    6CHTO   H90 2405   7.762   5.235   2.134
    6CHTO    N9 2406   7.638   5.101   2.236
    6CHTO   H77 2407   7.712   5.118   2.312
    6CHTO   H78 2408   7.630   4.996   2.213
    6CHTO   C51 2409   7.558   5.289   2.082
    6CHTO   H93 2410   7.464   5.235   2.064
    6CHTO   O30 2411   7.598   5.365   1.968
    6CHTO   C46 2412   7.603   5.283   1.841
    6CHTO   H88 2413   7.506   5.234   1.826
    6CHTO   C53 2414   7.631   5.379   1.723
    6CHTO   O72 2415   7.526   5.475   1.708
    6CHTO  H199 2416   7.527   5.535   1.779
    6CHTO   O22 2417   7.542   5.385   2.189
    6CHTO   C31 2418   7.423   5.471   2.202
    6CHTO   H59 2419   7.435   5.524   2.299
    6CHTO   C29 2420   7.409   5.580   2.093
    6CHTO   H57 2421   7.398   5.529   1.995
    6CHTO   O21 2422   7.531   5.655   2.089
    6CHTO   H37 2423   7.602   5.601   2.060
    6CHTO   C27 2424   7.282   5.671   2.117
    6CHTO   H55 2425   7.297   5.727   2.211
    6CHTO    N5 2426   7.259   5.769   2.007
    6CHTO   H43 2427   7.345   5.833   1.997
    6CHTO   H44 2428   7.241   5.716   1.915
    6CHTO   C25 2429   7.155   5.581   2.139
    6CHTO   H53 2430   7.130   5.530   2.045
    6CHTO   O17 2431   7.179   5.479   2.241
    6CHTO   C32 2432   7.289   5.391   2.213
    6CHTO   H60 2433   7.270   5.340   2.119
    6CHTO   C36 2434   7.293   5.284   2.325
    6CHTO   O25 2435   7.321   5.340   2.454
    6CHTO   H40 2436   7.408   5.374   2.456
    6CHTO   O15 2437   7.027   5.670   2.186
    6CHTO   C19 2438   6.949   5.667   2.309
    6CHTO   H47 2439   6.936   5.559   2.329
    6CHTO   C20 2440   7.017   5.733   2.432
    6CHTO   H48 2441   7.037   5.840   2.415
    6CHTO   O19 2442   7.144   5.667   2.450
    6CHTO   H35 2443   7.193   5.709   2.518
    6CHTO   C21 2444   6.927   5.719   2.562
    6CHTO   H49 2445   6.919   5.613   2.586
    6CHTO    N4 2446   6.986   5.786   2.681
    6CHTO   H41 2447   7.001   5.891   2.661
    6CHTO   H42 2448   7.082   5.741   2.705
    6CHTO   C22 2449   6.784   5.769   2.530
    6CHTO   H50 2450   6.787   5.878   2.516
    6CHTO   O14 2451   6.730   5.706   2.413
    6CHTO   C23 2452   6.805   5.725   2.292
    6CHTO   H51 2453   6.807   5.832   2.270
    6CHTO   C34 2454   6.731   5.654   2.177
    6CHTO   O23 2455   6.603   5.713   2.151
    6CHTO   H38 2456   6.614   5.798   2.113
    6CHTO   O16 2457   6.692   5.733   2.635
    6CHTO   C24 2458   6.578   5.842   2.665
    6CHTO   H52 2459   6.570   5.916   2.586
    6CHTO   C26 2460   6.610   5.911   2.799
    6CHTO   H54 2461   6.634   5.832   2.874
    6CHTO   O20 2462   6.728   5.991   2.781
    6CHTO   H36 2463   6.757   6.025   2.863
    6CHTO   C30 2464   6.491   5.996   2.853
    6CHTO   H58 2465   6.483   6.089   2.794
    6CHTO    N6 2466   6.516   6.040   2.994
    6CHTO   H45 2467   6.606   6.099   2.998
    6CHTO   H46 2468   6.433   6.099   3.030
    6CHTO   C33 2469   6.354   5.923   2.839
    6CHTO   H61 2470   6.348   5.840   2.911
    6CHTO   O18 2471   6.341   5.869   2.706
    6CHTO   C28 2472   6.441   5.771   2.674
    6CHTO   H56 2473   6.445   5.695   2.752
    6CHTO   C35 2474   6.404   5.699   2.542
    6CHTO   O24 2475   6.387   5.787   2.431
    6CHTO   H39 2476   6.365   5.737   2.355
    6CHTO    O9 2477   6.243   6.011   2.871
    6CHTO   C13 2478   6.097   5.938   2.869
    6CHTO   H26 2479   6.111   5.832   2.897
    6CHTO   C11 2480   6.034   5.953   2.725
    6CHTO   H24 2481   6.102   5.907   2.652
    6CHTO    O8 2482   6.023   6.093   2.693
    6CHTO    H3 2483   6.108   6.131   2.685
    6CHTO    C9 2484   5.899   5.876   2.723
    6CHTO   H22 2485   5.925   5.771   2.741
    6CHTO    N2 2486   5.838   5.870   2.587
    6CHTO   H10 2487   5.733   5.897   2.592
    6CHTO   H11 2488   5.890   5.935   2.518
    6CHTO    C7 2489   5.806   5.924   2.843
    6CHTO   H20 2490   5.796   5.832   2.905
    6CHTO    O4 2491   5.866   6.028   2.922
    6CHTO   C14 2492   5.995   5.998   2.977
    6CHTO   H27 2493   5.981   5.923   3.057
    6CHTO   C18 2494   6.049   6.126   3.046
    6CHTO   O13 2495   5.967   6.165   3.156
    6CHTO    H7 2496   6.001   6.243   3.195
    6CHTO    O2 2497   5.655   5.974   2.797
    6CHTO    C1 2498   5.545   5.933   2.880
    6CHTO   H14 2499   5.455   5.985   2.842
    6CHTO    C2 2500   5.559   5.965   3.035
    6CHTO   H15 2501   5.650   5.914   3.070
    6CHTO    O6 2502   5.575   6.108   3.051
    6CHTO    H1 2503   5.498   6.153   3.021
    6CHTO    C3 2504   5.431   5.909   3.115
    6CHTO   H16 2505   5.342   5.963   3.081
    6CHTO    N1 2506   5.440   5.931   3.264
    6CHTO    H8 2507   5.358   5.991   3.298
    6CHTO    H9 2508   5.533   5.979   3.290
    6CHTO    C4 2509   5.406   5.758   3.077
    6CHTO   H17 2510   5.489   5.699   3.116
    6CHTO    O1 2511   5.398   5.743   2.935
    6CHTO    C5 2512   5.515   5.781   2.862
    6CHTO   H18 2513   5.601   5.725   2.900
    6CHTO   C16 2514   5.494   5.742   2.713
    6CHTO   O11 2515   5.387   5.816   2.653
    6CHTO    H5 2516   5.376   5.790   2.564
    6CHTO    O3 2517   5.280   5.709   3.127
    6CHTO    C6 2518   5.279   5.566   3.162
    6CHTO   H19 2519   5.369   5.513   3.130
    6CHTO    C8 2520   5.266   5.549   3.317
    6CHTO   H21 2521   5.179   5.606   3.351
    6CHTO    O7 2522   5.385   5.605   3.375
    6CHTO    H2 2523   5.378   5.605   3.469
    6CHTO   C12 2524   5.248   5.397   3.355
    6CHTO   H25 2525   5.344   5.347   3.331
    6CHTO    N3 2526   5.226   5.380   3.503
    6CHTO   H12 2527   5.138   5.433   3.534
    6CHTO   H13 2528   5.313   5.415   3.557
    6CHTO   C15 2529   5.134   5.332   3.269
    6CHTO   H28 2530   5.035   5.367   3.298
    6CHTO   O10 2531   5.137   5.177   3.273
    6CHTO    H4 2532   5.119   5.147   3.360
    6CHTO    O5 2533   5.155   5.356   3.129
    6CHTO   C10 2534   5.158   5.495   3.093
    6CHTO   H23 2535   5.065   5.542   3.124
    6CHTO   C17 2536   5.166   5.505   2.940
    6CHTO   O12 2537   5.051   5.449   2.877
    6CHTO    H6 2538   4.976   5.503   2.894
    7CHTO  H203 2539   5.377   2.552   3.521
    7CHTO   O82 2540   5.397   2.643   3.531
    7CHTO  C123 2541   5.530   2.670   3.484
    7CHTO  H227 2542   5.536   2.642   3.377
    7CHTO   O77 2543   5.541   2.814   3.499
    7CHTO  C118 2544   5.662   2.867   3.444
    7CHTO  H222 2545   5.673   2.832   3.340
    7CHTO  C125 2546   5.651   3.025   3.443
    7CHTO   O84 2547   5.624   3.080   3.572
    7CHTO  H205 2548   5.697   3.067   3.629
    7CHTO  C114 2549   5.783   2.816   3.525
    7CHTO  H218 2550   5.776   2.855   3.627
    7CHTO  C116 2551   5.784   2.659   3.534
    7CHTO  H220 2552   5.818   2.619   3.436
    7CHTO   O79 2553   5.882   2.616   3.630
    7CHTO  H201 2554   5.860   2.649   3.716
    7CHTO  C120 2555   5.641   2.599   3.569
    7CHTO  H224 2556   5.625   2.621   3.677
    7CHTO   N21 2557   5.639   2.451   3.553
    7CHTO  H211 2558   5.567   2.407   3.620
    7CHTO  H212 2559   5.616   2.425   3.450
    7CHTO   O75 2560   5.897   2.873   3.458
    7CHTO  C112 2561   6.033   2.879   3.547
    7CHTO  H216 2562   6.039   2.790   3.610
    7CHTO   O73 2563   6.029   3.000   3.625
    7CHTO  C113 2564   6.133   3.002   3.724
    7CHTO  H217 2565   6.121   2.914   3.790
    7CHTO  C124 2566   6.110   3.126   3.812
    7CHTO   O83 2567   6.191   3.128   3.930
    7CHTO  H204 2568   6.171   3.206   3.980
    7CHTO  C109 2569   6.273   3.004   3.657
    7CHTO  H213 2570   6.283   3.101   3.607
    7CHTO  C110 2571   6.286   2.889   3.551
    7CHTO  H214 2572   6.296   2.794   3.605
    7CHTO   O78 2573   6.408   2.908   3.477
    7CHTO  H200 2574   6.483   2.897   3.533
    7CHTO  C111 2575   6.162   2.884   3.457
    7CHTO  H215 2576   6.160   2.976   3.397
    7CHTO   N19 2577   6.165   2.770   3.362
    7CHTO  H207 2578   6.166   2.676   3.415
    7CHTO  H208 2579   6.079   2.774   3.296
    7CHTO   O74 2580   6.376   2.991   3.759
    7CHTO  C115 2581   6.503   3.074   3.733
    7CHTO  H219 2582   6.504   3.116   3.632
    7CHTO   O76 2583   6.513   3.201   3.833
    7CHTO  C122 2584   6.530   3.161   3.970
    7CHTO  H226 2585   6.444   3.101   4.000
    7CHTO  C126 2586   6.529   3.288   4.062
    7CHTO   O85 2587   6.403   3.355   4.063
    7CHTO  H206 2588   6.386   3.394   3.979
    7CHTO  C121 2589   6.663   3.076   3.985
    7CHTO  H225 2590   6.747   3.135   3.945
    7CHTO   O81 2591   6.691   3.047   4.122
    7CHTO  H202 2592   6.621   2.997   4.161
    7CHTO  C119 2593   6.647   2.946   3.900
    7CHTO  H223 2594   6.741   2.891   3.911
    7CHTO  C117 2595   6.625   2.976   3.747
    7CHTO  H221 2596   6.597   2.889   3.686
    7CHTO   N20 2597   6.748   3.031   3.679
    7CHTO  H209 2598   6.729   3.045   3.574
    7CHTO  H210 2599   6.776   3.125   3.725
    7CHTO   O80 2600   6.545   2.846   3.963
    7CHTO  C103 2601   6.521   2.704   3.897
    7CHTO  H190 2602   6.469   2.714   3.802
    7CHTO  C101 2603   6.646   2.609   3.878
    7CHTO  H188 2604   6.703   2.607   3.971
    7CHTO   O68 2605   6.737   2.668   3.766
    7CHTO  H168 2606   6.816   2.617   3.760
    7CHTO   C99 2607   6.600   2.459   3.843
    7CHTO  H186 2608   6.546   2.461   3.746
    7CHTO   N17 2609   6.713   2.361   3.829
    7CHTO  H174 2610   6.807   2.407   3.855
    7CHTO  H175 2611   6.716   2.322   3.728
    7CHTO   C97 2612   6.496   2.410   3.948
    7CHTO  H184 2613   6.545   2.401   4.046
    7CHTO   O64 2614   6.386   2.503   3.952
    7CHTO  C104 2615   6.421   2.635   3.998
    7CHTO  H191 2616   6.466   2.630   4.096
    7CHTO  C108 2617   6.291   2.715   4.015
    7CHTO   O71 2618   6.211   2.716   3.896
    7CHTO  H171 2619   6.253   2.767   3.830
    7CHTO   O62 2620   6.432   2.286   3.910
    7CHTO   C91 2621   6.374   2.202   4.012
    7CHTO  H178 2622   6.326   2.120   3.959
    7CHTO   C92 2623   6.259   2.271   4.093
    7CHTO  H179 2624   6.299   2.361   4.143
    7CHTO   O66 2625   6.160   2.319   4.000
    7CHTO  H166 2626   6.121   2.247   3.954
    7CHTO   C93 2627   6.194   2.174   4.200
    7CHTO  H180 2628   6.138   2.098   4.145
    7CHTO   N16 2629   6.096   2.241   4.289
    7CHTO  H172 2630   6.143   2.321   4.343
    7CHTO  H173 2631   6.013   2.279   4.230
    7CHTO   C94 2632   6.306   2.102   4.285
    7CHTO  H181 2633   6.359   2.172   4.350
    7CHTO   O61 2634   6.405   2.043   4.199
    7CHTO   C95 2635   6.474   2.136   4.115
    7CHTO  H182 2636   6.519   2.214   4.177
    7CHTO  C106 2637   6.592   2.060   4.045
    7CHTO   O69 2638   6.544   1.951   3.964
    7CHTO  H169 2639   6.509   1.884   4.020
    7CHTO   O63 2640   6.243   1.981   4.370
    7CHTO   C96 2641   6.319   1.959   4.501
    7CHTO  H183 2642   6.340   2.057   4.544
    7CHTO   C98 2643   6.455   1.882   4.485
    7CHTO  H185 2644   6.505   1.911   4.391
    7CHTO   O67 2645   6.542   1.925   4.590
    7CHTO  H167 2646   6.628   1.889   4.579
    7CHTO  C102 2647   6.440   1.722   4.495
    7CHTO  H189 2648   6.543   1.684   4.507
    7CHTO   N18 2649   6.390   1.658   4.371
    7CHTO  H176 2650   6.385   1.551   4.384
    7CHTO  H177 2651   6.292   1.696   4.347
    7CHTO  C105 2652   6.357   1.684   4.621
    7CHTO  H192 2653   6.280   1.610   4.596
    7CHTO   O65 2654   6.291   1.794   4.687
    7CHTO  C100 2655   6.220   1.882   4.600
    7CHTO  H187 2656   6.150   1.822   4.540
    7CHTO  C107 2657   6.137   1.979   4.687
    7CHTO   O70 2658   6.052   2.060   4.606
    7CHTO  H170 2659   6.003   2.119   4.661
    7CHTO   O57 2660   6.459   1.621   4.720
    7CHTO   C85 2661   6.501   1.483   4.713
    7CHTO  H157 2662   6.531   1.465   4.607
    7CHTO   C83 2663   6.382   1.386   4.741
    7CHTO  H155 2664   6.308   1.398   4.662
    7CHTO   O56 2665   6.315   1.424   4.863
    7CHTO  H135 2666   6.373   1.412   4.937
    7CHTO   C81 2667   6.434   1.239   4.739
    7CHTO  H153 2668   6.480   1.221   4.641
    7CHTO   N14 2669   6.326   1.138   4.746
    7CHTO  H141 2670   6.277   1.143   4.841
    7CHTO  H142 2671   6.366   1.039   4.733
    7CHTO   C79 2672   6.545   1.220   4.849
    7CHTO  H151 2673   6.582   1.118   4.840
    7CHTO   O52 2674   6.657   1.309   4.821
    7CHTO   C86 2675   6.618   1.451   4.813
    7CHTO  H158 2676   6.590   1.477   4.917
    7CHTO   C90 2677   6.743   1.536   4.780
    7CHTO   O60 2678   6.837   1.531   4.887
    7CHTO  H138 2679   6.911   1.585   4.866
    7CHTO   O50 2680   6.499   1.241   4.984
    7CHTO   C73 2681   6.515   1.167   5.106
    7CHTO  H145 2682   6.601   1.099   5.099
    7CHTO   C74 2683   6.386   1.084   5.135
    7CHTO  H146 2684   6.371   1.017   5.049
    7CHTO   O54 2685   6.410   0.999   5.249
    7CHTO  H133 2686   6.474   0.934   5.228
    7CHTO   C75 2687   6.265   1.182   5.155
    7CHTO  H147 2688   6.251   1.241   5.063
    7CHTO   N13 2689   6.135   1.114   5.177
    7CHTO  H139 2690   6.056   1.187   5.188
    7CHTO  H140 2691   6.139   1.055   5.268
    7CHTO   C76 2692   6.301   1.286   5.272
    7CHTO  H148 2693   6.308   1.231   5.366
    7CHTO   O49 2694   6.428   1.354   5.244
    7CHTO   C77 2695   6.540   1.266   5.225
    7CHTO  H149 2696   6.557   1.208   5.316
    7CHTO   C88 2697   6.666   1.350   5.203
    7CHTO   O58 2698   6.696   1.433   5.323
    7CHTO  H136 2699   6.777   1.479   5.310
    7CHTO   O51 2700   6.197   1.403   5.278
    7CHTO   C78 2701   6.166   1.449   5.424
    7CHTO  H150 2702   6.242   1.411   5.496
    7CHTO   C80 2703   6.027   1.395   5.465
    7CHTO  H152 2704   5.955   1.418   5.383
    7CHTO   O55 2705   6.039   1.252   5.476
    7CHTO  H134 2706   5.954   1.214   5.491
    7CHTO   C84 2707   5.976   1.459   5.600
    7CHTO  H156 2708   6.040   1.424   0.046
    7CHTO   N15 2709   5.836   1.416   0.002
    7CHTO  H143 2710   5.795   1.351   5.562
    7CHTO  H144 2711   5.835   1.367   0.097
    7CHTO   C87 2712   5.988   1.612   5.593
    7CHTO  H159 2713   5.920   1.652   5.517
    7CHTO   O53 2714   6.134   1.649   5.559
    7CHTO   C82 2715   6.172   1.603   5.429
    7CHTO  H154 2716   6.108   1.646   5.352
    7CHTO   C89 2717   6.317   1.650   5.399
    7CHTO   O59 2718   6.329   1.793   5.402
    7CHTO  H137 2719   6.319   1.823   5.490
    7CHTO   O45 2720   5.956   1.678   0.099
    7CHTO   C67 2721   5.933   1.820   0.093
    7CHTO  H124 2722   5.991   1.863   0.011
    7CHTO   C65 2723   5.781   1.852   0.069
    7CHTO  H122 2724   5.726   1.764   0.102
    7CHTO   O44 2725   5.764   1.867   5.561
    7CHTO  H102 2726   5.673   1.874   5.540
    7CHTO   C63 2727   5.729   1.969   0.161
    7CHTO  H120 2728   5.719   1.931   0.263
    7CHTO   N11 2729   5.591   2.020   0.133
    7CHTO  H108 2730   5.524   1.992   0.211
    7CHTO  H109 2731   5.556   1.983   0.039
    7CHTO   C61 2732   5.839   2.081   0.167
    7CHTO  H118 2733   5.802   2.159   0.236
    7CHTO   O40 2734   5.965   2.034   0.223
    7CHTO   C68 2735   5.987   1.889   0.223
    7CHTO  H125 2736   5.936   1.846   0.312
    7CHTO   C72 2737   6.138   1.861   0.241
    7CHTO   O48 2738   6.181   1.896   0.372
    7CHTO  H105 2739   6.272   1.876   0.382
    7CHTO   O38 2740   5.868   2.138   0.038
    7CHTO   C55 2741   5.908   2.276   0.039
    7CHTO  H112 2742   5.940   2.307   0.140
    7CHTO   C56 2743   5.788   2.365   5.619
    7CHTO  H113 2744   5.754   2.319   5.525
    7CHTO   O42 2745   5.677   2.357   0.076
    7CHTO  H100 2746   5.701   2.390   0.161
    7CHTO   C57 2747   5.833   2.515   5.594
    7CHTO  H114 2748   5.850   2.560   0.058
    7CHTO   N10 2749   5.729   2.596   5.526
    7CHTO  H106 2750   5.670   2.536   5.459
    7CHTO  H107 2751   5.773   2.678   5.471
    7CHTO   C58 2752   5.966   2.516   5.515
    7CHTO  H115 2753   5.947   2.476   5.412
    7CHTO   O37 2754   6.066   2.436   5.579
    7CHTO   C59 2755   6.033   2.296   5.582
    7CHTO  H116 2756   6.012   2.261   5.481
    7CHTO   C70 2757   6.154   2.217   5.633
    7CHTO   O46 2758   6.196   2.254   0.131
    7CHTO  H103 2759   6.272   2.203   0.155
    7CHTO   O39 2760   6.027   2.667   5.506
    7CHTO   C60 2761   6.128   2.681   5.405
    7CHTO  H117 2762   6.195   2.596   5.409
    7CHTO   C62 2763   6.066   2.689   5.262
    7CHTO  H119 2764   6.008   2.595   5.247
    7CHTO   O43 2765   5.973   2.800   5.255
    7CHTO  H101 2766   5.899   2.784   5.310
    7CHTO   C66 2767   6.183   2.695   5.153
    7CHTO  H123 2768   6.250   2.611   5.169
    7CHTO   N12 2769   6.133   2.681   5.015
    7CHTO  H110 2770   6.083   2.586   5.003
    7CHTO  H111 2771   6.065   2.763   4.991
    7CHTO   C69 2772   6.267   2.824   5.175
    7CHTO  H126 2773   6.204   2.915   5.158
    7CHTO   O41 2774   6.323   2.826   5.324
    7CHTO   C64 2775   6.214   2.807   5.433
    7CHTO  H121 2776   6.148   2.896   5.436
    7CHTO   C71 2777   6.282   2.794   5.572
    7CHTO   O47 2778   6.348   2.916   5.607
    7CHTO  H104 2779   6.284   2.982   5.627
    7CHTO   O34 2780   6.387   2.829   5.078
    7CHTO   C49 2781   6.508   2.900   5.028
    7CHTO   H91 2782   6.473   2.987   4.973
    7CHTO   C47 2783   6.585   2.805   4.934
    7CHTO   H89 2784   6.667   2.867   4.891
    7CHTO   O33 2785   6.501   2.762   4.825
    7CHTO   H70 2786   6.476   2.835   4.772
    7CHTO   C45 2787   6.642   2.677   5.015
    7CHTO   H87 2788   6.569   2.595   5.006
    7CHTO    N8 2789   6.768   2.633   4.949
    7CHTO   H75 2790   6.803   2.541   4.993
    7CHTO   H76 2791   6.844   2.709   4.961
    7CHTO   C43 2792   6.651   2.707   5.173
    7CHTO   H85 2793   6.551   2.690   5.212
    7CHTO   O29 2794   6.695   2.843   5.195
    7CHTO   C50 2795   6.606   2.944   5.142
    7CHTO   H92 2796   6.546   2.984   5.226
    7CHTO   C54 2797   6.696   3.064   5.102
    7CHTO   O36 2798   6.620   3.176   5.057
    7CHTO   H72 2799   6.678   3.246   5.035
    7CHTO   O27 2800   6.733   2.614   5.245
    7CHTO   C37 2801   6.735   2.502   5.336
    7CHTO   H79 2802   6.708   2.535   5.437
    7CHTO   C38 2803   6.632   2.393   5.293
    7CHTO   H80 2804   6.647   2.371   5.186
    7CHTO   O31 2805   6.500   2.449   5.310
    7CHTO   H68 2806   6.483   2.467   5.400
    7CHTO   C39 2807   6.649   2.259   5.376
    7CHTO   H81 2808   6.623   2.282   5.479
    7CHTO    N7 2809   6.559   2.148   5.332
    7CHTO   H73 2810   6.497   2.179   5.248
    7CHTO   H74 2811   6.615   2.060   5.305
    7CHTO   C40 2812   6.801   2.216   5.375
    7CHTO   H82 2813   6.829   2.190   5.273
    7CHTO   O26 2814   6.880   2.325   5.426
    7CHTO   C41 2815   6.879   2.442   5.339
    7CHTO   H83 2816   6.909   2.413   5.237
    7CHTO   C52 2817   6.985   2.540   5.394
    7CHTO   O35 2818   7.011   2.656   5.304
    7CHTO   H71 2819   7.053   2.626   5.225
    7CHTO   O28 2820   6.829   2.105   5.462
    7CHTO   C42 2821   6.945   2.018   5.436
    7CHTO   H84 2822   6.947   1.953   5.524
    7CHTO   C44 2823   7.084   2.090   5.433
    7CHTO   H86 2824   7.079   2.172   5.361
    7CHTO   O32 2825   7.105   2.147   5.564
    7CHTO   H69 2826   7.046   2.218   5.579
    7CHTO   C48 2827   7.203   1.995   5.389
    7CHTO   H90 2828   7.216   1.919   5.466
    7CHTO    N9 2829   7.334   2.069   5.380
    7CHTO   H77 2830   7.412   2.000   5.352
    7CHTO   H78 2831   7.326   2.149   5.308
    7CHTO   C51 2832   7.162   1.925   5.255
    7CHTO   H93 2833   7.140   2.003   5.181
    7CHTO   O30 2834   7.047   1.844   5.282
    7CHTO   C46 2835   6.923   1.926   5.312
    7CHTO   H88 2836   6.900   1.987   5.224
    7CHTO   C53 2837   6.806   1.828   5.339
    7CHTO   O72 2838   6.781   1.743   5.226
    7CHTO  H199 2839   6.852   1.682   5.215
    7CHTO   O22 2840   7.259   1.833   5.203
    7CHTO   C31 2841   7.279   1.814   5.058
    7CHTO   H59 2842   7.339   1.720   5.048
    7CHTO   C29 2843   7.151   1.794   4.974
    7CHTO   H57 2844   7.088   1.884   4.985
    7CHTO   O21 2845   7.077   1.684   5.032
    7CHTO   H37 2846   6.992   1.678   4.992
    7CHTO   C27 2847   7.183   1.771   4.821
    7CHTO   H55 2848   7.240   1.678   4.811
    7CHTO    N5 2849   7.062   1.760   4.736
    7CHTO   H43 2850   7.004   1.852   4.741
    7CHTO   H44 2851   7.001   1.677   4.768
    7CHTO   C25 2852   7.276   1.887   4.770
    7CHTO   H53 2853   7.221   1.982   4.772
    7CHTO   O17 2854   7.394   1.899   4.855
    7CHTO   C32 2855   7.367   1.927   4.994
    7CHTO   H60 2856   7.313   2.021   5.002
    7CHTO   C36 2857   7.503   1.944   5.065
    7CHTO   O25 2858   7.584   1.826   5.056
    7CHTO   H40 2859   7.665   1.840   5.101
    7CHTO   O15 2860   7.329   1.860   4.625
    7CHTO   C19 2861   7.341   1.925   4.495
    7CHTO   H47 2862   7.430   1.877   4.450
    7CHTO   C20 2863   7.219   1.902   4.401
    7CHTO   H48 2864   7.126   1.944   4.444
    7CHTO   O19 2865   7.201   1.760   4.388
    7CHTO   H35 2866   7.169   1.723   4.468
    7CHTO   C21 2867   7.242   1.970   4.260
    7CHTO   H49 2868   7.324   1.919   4.210
    7CHTO    N4 2869   7.123   1.958   4.171
    7CHTO   H41 2870   7.083   2.056   4.145
    7CHTO   H42 2871   7.150   1.906   4.080
    7CHTO   C22 2872   7.288   2.117   4.280
    7CHTO   H50 2873   7.204   2.175   4.319
    7CHTO   O14 2874   7.399   2.127   4.371
    7CHTO   C23 2875   7.372   2.077   4.503
    7CHTO   H51 2876   7.288   2.134   4.544
    7CHTO   C34 2877   7.495   2.105   4.590
    7CHTO   O23 2878   7.514   2.245   4.611
    7CHTO   H38 2879   7.588   2.259   4.666
    7CHTO   O16 2880   7.336   2.173   4.156
    7CHTO   C24 2881   7.325   2.331   4.146
    7CHTO   H52 2882   7.329   2.378   4.244
    7CHTO   C26 2883   7.191   2.367   4.077
    7CHTO   H54 2884   7.180   2.303   3.987
    7CHTO   O20 2885   7.083   2.333   4.166
    7CHTO   H36 2886   7.087   2.385   4.244
    7CHTO   C30 2887   7.186   2.517   4.033
    7CHTO   H58 2888   7.181   2.581   4.123
    7CHTO    N6 2889   7.062   2.545   3.955
    7CHTO   H45 2890   7.086   2.575   3.854
    7CHTO   H46 2891   7.004   2.622   4.002
    7CHTO   C33 2892   7.316   2.556   3.958
    7CHTO   H61 2893   7.323   2.499   3.864
    7CHTO   O18 2894   7.430   2.523   4.039
    7CHTO   C28 2895   7.447   2.383   4.065
    7CHTO   H56 2896   7.454   2.327   3.971
    7CHTO   C35 2897   7.577   2.362   4.146
    7CHTO   O24 2898   7.694   2.401   4.074
    7CHTO   H39 2899   7.709   2.342   4.003
    7CHTO    O9 2900   7.317   2.695   3.920
    7CHTO   C13 2901   7.412   2.732   3.792
    7CHTO   H26 2902   7.417   2.643   3.726
    7CHTO   C11 2903   7.557   2.776   3.843
    7CHTO   H24 2904   7.618   2.685   3.855
    7CHTO    O8 2905   7.548   2.841   3.971
    7CHTO    H3 2906   7.496   2.919   3.966
    7CHTO    C9 2907   7.622   2.868   3.735
    7CHTO   H22 2908   7.617   2.810   3.641
    7CHTO    N2 2909   7.767   2.892   3.755
    7CHTO   H10 2910   7.819   2.798   3.765
    7CHTO   H11 2911   7.806   2.949   3.672
    7CHTO    C7 2912   7.534   2.999   3.718
    7CHTO   H20 2913   7.549   3.028   3.612
    7CHTO    O4 2914   7.394   2.975   3.742
    7CHTO   C14 2915   7.344   2.846   3.704
    7CHTO   H27 2916   7.370   2.829   3.597
    7CHTO   C18 2917   7.190   2.849   3.713
    7CHTO   O13 2918   7.134   2.728   3.660
    7CHTO    H7 2919   7.040   2.732   3.666
    7CHTO    O2 2920   7.586   3.125   3.817
    7CHTO    C1 2921   7.498   3.239   3.825
    7CHTO   H14 2922   7.398   3.212   3.785
    7CHTO    C2 2923   7.549   3.367   3.749
    7CHTO   H15 2924   7.651   3.387   3.786
    7CHTO    O6 2925   7.555   3.337   3.609
    7CHTO    H1 2926   7.593   3.408   3.562
    7CHTO    C3 2927   7.453   3.493   3.779
    7CHTO   H16 2928   7.356   3.476   3.730
    7CHTO    N1 2929   7.508   3.620   3.721
    7CHTO    H8 2930   7.604   3.642   3.765
    7CHTO    H9 2931   7.440   3.701   3.739
    7CHTO    C4 2932   7.423   3.505   3.933
    7CHTO   H17 2933   7.513   3.539   3.985
    7CHTO    O1 2934   7.379   3.378   3.987
    7CHTO    C5 2935   7.476   3.273   3.975
    7CHTO   H18 2936   7.572   3.308   4.015
    7CHTO   C16 2937   7.429   3.151   4.058
    7CHTO   O11 2938   7.310   3.092   4.007
    7CHTO    H5 2939   7.237   3.150   4.019
    7CHTO    O3 2940   7.312   3.594   3.959
    7CHTO    C6 2941   7.310   3.673   4.084
    7CHTO   H19 2942   7.209   3.710   4.103
    7CHTO    C8 2943   7.351   3.592   4.212
    7CHTO   H21 2944   7.447   3.544   4.193
    7CHTO    O7 2945   7.250   3.492   4.233
    7CHTO    H2 2946   7.254   3.426   4.166
    7CHTO   C12 2947   7.367   3.686   4.338
    7CHTO   H25 2948   7.264   3.722   4.363
    7CHTO    N3 2949   7.418   3.610   4.457
    7CHTO   H12 2950   7.513   3.649   4.491
    7CHTO   H13 2951   7.345   3.613   4.537
    7CHTO   C15 2952   7.455   3.811   4.301
    7CHTO   H28 2953   7.559   3.784   4.283
    7CHTO   O10 2954   7.448   3.922   4.407
    7CHTO    H4 2955   7.484   3.891   4.488
    7CHTO    O5 2956   7.401   3.878   4.186
    7CHTO   C10 2957   7.401   3.799   4.067
    7CHTO   H23 2958   7.503   3.768   4.045
    7CHTO   C17 2959   7.353   3.888   3.951
    7CHTO   O12 2960   7.446   3.994   3.927
    7CHTO    H6 2961   7.415   4.046   3.855
    8CHTO  H203 2962   8.005   6.972   0.269
    8CHTO   O82 2963   7.917   6.948   0.247
    8CHTO  C123 2964   7.839   6.926   0.366
    8CHTO  H227 2965   7.896   6.862   0.435
    8CHTO   O77 2966   7.825   7.060   0.422
    8CHTO  C118 2967   7.754   7.066   0.546
    8CHTO  H222 2968   7.803   6.999   0.619
    8CHTO  C125 2969   7.762   7.213   0.601
    8CHTO   O84 2970   7.705   7.309   0.510
    8CHTO  H205 2971   7.612   7.296   0.504
    8CHTO  C114 2972   7.609   7.019   0.524
    8CHTO  H218 2973   7.562   7.085   0.452
    8CHTO  C116 2974   7.605   6.875   0.464
    8CHTO  H220 2975   7.639   6.802   0.541
    8CHTO   O79 2976   7.468   6.843   0.434
    8CHTO  H201 2977   7.419   6.833   0.514
    8CHTO  C120 2978   7.697   6.865   0.335
    8CHTO  H224 2979   7.646   6.925   0.256
    8CHTO   N21 2980   7.705   6.725   0.285
    8CHTO  H211 2981   7.787   6.673   0.333
    8CHTO  H212 2982   7.718   6.726   0.178
    8CHTO   O75 2983   7.544   7.030   0.653
    8CHTO  C112 2984   7.395   7.101   0.647
    8CHTO  H216 2985   7.329   7.039   0.583
    8CHTO   O73 2986   7.412   7.233   0.593
    8CHTO  C113 2987   7.290   7.306   0.577
    8CHTO  H217 2988   7.219   7.247   0.516
    8CHTO  C124 2989   7.324   7.433   0.498
    8CHTO   O83 2990   7.209   7.501   0.448
    8CHTO  H204 2991   7.167   7.449   0.382
    8CHTO  C109 2992   7.231   7.335   0.718
    8CHTO  H213 2993   7.307   7.394   0.773
    8CHTO  C110 2994   7.206   7.200   0.792
    8CHTO  H214 2995   7.125   7.148   0.740
    8CHTO   O78 2996   7.161   7.229   0.925
    8CHTO  H200 2997   7.136   7.150   0.969
    8CHTO  C111 2998   7.334   7.112   0.792
    8CHTO  H215 2999   7.410   7.160   0.855
    8CHTO   N19 3000   7.312   6.976   0.849
    8CHTO  H207 3001   7.404   6.920   0.848
    8CHTO  H208 3002   7.276   6.984   0.950
    8CHTO   O74 3003   7.107   7.413   0.709
    8CHTO  C115 3004   7.101   7.562   0.792
    8CHTO  H219 3005   7.038   7.555   0.881
    8CHTO   O76 3006   7.246   7.606   0.845
    8CHTO  C122 3007   7.256   7.739   0.899
    8CHTO  H226 3008   7.361   7.758   0.918
    8CHTO  C126 3009   7.184   7.746   1.039
    8CHTO   O85 3010   7.203   7.872   1.104
    8CHTO  H206 3011   7.160   7.870   1.188
    8CHTO  C121 3012   7.203   7.845   0.795
    8CHTO  H225 3013   7.207   7.944   0.843
    8CHTO   O81 3014   7.291   7.847   0.683
    8CHTO  H202 3015   7.269   7.919   0.626
    8CHTO  C119 3016   7.056   7.816   0.752
    8CHTO  H223 3017   6.995   7.825   0.842
    8CHTO  C117 3018   7.038   7.670   0.695
    8CHTO  H221 3019   7.086   7.652   0.599
    8CHTO   N20 3020   6.893   7.640   0.672
    8CHTO  H209 3021   6.839   7.644   0.766
    8CHTO  H210 3022   6.851   7.710   0.602
    8CHTO   O80 3023   6.994   7.933   0.659
    8CHTO  C103 3024   6.916   8.054   0.726
    8CHTO  H190 3025   6.827   8.018   0.778
    8CHTO  C101 3026   7.000   8.144   0.825
    8CHTO  H188 3027   7.099   8.160   0.781
    8CHTO   O68 3028   7.018   8.067   0.960
    8CHTO  H168 3029   6.934   8.055   1.001
    8CHTO   C99 3030   6.933   8.288   0.850
    8CHTO  H186 3031   6.842   8.273   0.911
    8CHTO   N17 3032   7.022   8.380   0.929
    8CHTO  H174 3033   7.109   8.405   0.870
    8CHTO  H175 3034   6.967   8.468   0.957
    8CHTO   C97 3035   6.884   8.351   0.717
    8CHTO  H184 3036   6.972   8.378   0.656
    8CHTO   O64 3037   6.799   8.258   0.649
    8CHTO  C104 3038   6.867   8.140   0.603
    8CHTO  H191 3039   6.953   8.165   0.541
    8CHTO  C108 3040   6.771   8.059   0.515
    8CHTO   O71 3041   6.733   8.134   0.399
    8CHTO  H171 3042   6.673   8.083   0.348
    8CHTO   O62 3043   6.796   8.464   0.734
    8CHTO   C91 3044   6.850   8.596   0.713
    8CHTO  H178 3045   6.958   8.593   0.728
    8CHTO   C92 3046   6.793   8.693   0.821
    8CHTO  H179 3047   6.683   8.693   0.813
    8CHTO   O66 3048   6.821   8.640   0.952
    8CHTO  H166 3049   6.914   8.635   0.967
    8CHTO   C93 3050   6.850   8.840   0.807
    8CHTO  H180 3051   6.954   8.838   0.842
    8CHTO   N16 3052   6.781   8.939   0.894
    8CHTO  H172 3053   6.675   8.941   0.870
    8CHTO  H173 3054   6.795   8.913   0.998
    8CHTO   C94 3055   6.848   8.889   0.657
    8CHTO  H181 3056   6.747   8.915   0.624
    8CHTO   O61 3057   6.896   8.787   0.567
    8CHTO   C95 3058   6.821   8.665   0.573
    8CHTO  H182 3059   6.715   8.687   0.563
    8CHTO  C106 3060   6.862   8.579   0.448
    8CHTO   O69 3061   6.775   8.467   0.432
    8CHTO  H169 3062   6.800   8.418   0.357
    8CHTO   O63 3063   6.948   9.017   0.641
    8CHTO   C96 3064   6.924   9.095   0.508
    8CHTO  H183 3065   6.839   9.050   0.456
    8CHTO   C98 3066   7.044   9.094   0.410
    8CHTO  H185 3067   7.134   9.134   0.460
    8CHTO   O67 3068   7.074   8.957   0.380
    8CHTO  H167 3069   7.150   8.951   0.326
    8CHTO  C102 3070   7.012   9.176   0.275
    8CHTO  H189 3071   6.940   9.114   0.219
    8CHTO   N18 3072   7.128   9.194   0.185
    8CHTO  H176 3073   7.099   9.249   0.097
    8CHTO  H177 3074   7.168   9.098   0.156
    8CHTO  C105 3075   6.941   9.312   0.307
    8CHTO  H192 3076   7.016   9.387   0.332
    8CHTO   O65 3077   6.845   9.308   0.415
    8CHTO  C100 3078   6.890   9.245   0.536
    8CHTO  H187 3079   6.980   9.297   0.571
    8CHTO  C107 3080   6.781   9.262   0.645
    8CHTO   O70 3081   6.659   9.197   0.609
    8CHTO  H170 3082   6.596   9.208   0.677
    8CHTO   O57 3083   6.862   9.350   0.171
    8CHTO   C85 3084   6.895   9.469   0.099
    8CHTO  H157 3085   7.006   9.475   0.097
    8CHTO   C83 3086   6.847   9.595   0.178
    8CHTO  H155 3087   6.900   9.598   0.273
    8CHTO   O56 3088   6.707   9.582   0.209
    8CHTO  H135 3089   6.693   9.509   0.267
    8CHTO   C81 3090   6.882   9.723   0.096
    8CHTO  H153 3091   6.989   9.723   0.078
    8CHTO   N14 3092   6.857   9.849   0.172
    8CHTO  H141 3093   6.910   9.846   0.265
    8CHTO  H142 3094   6.891   9.933   0.115
    8CHTO   C79 3095   6.809   9.719   5.590
    8CHTO  H151 3096   6.842   9.806   5.534
    8CHTO   O52 3097   6.851   9.600   5.515
    8CHTO   C86 3098   6.835   9.473   5.586
    8CHTO  H158 3099   6.725   9.457   5.589
    8CHTO   C90 3100   6.892   9.357   5.502
    8CHTO   O60 3101   6.819   9.340   5.380
    8CHTO  H138 3102   6.860   9.273   5.328
    8CHTO   O50 3103   6.665   9.722   5.599
    8CHTO   C73 3104   6.546   9.758   5.527
    8CHTO  H145 3105   6.560   9.742   5.419
    8CHTO   C74 3106   6.511   9.909   5.550
    8CHTO  H146 3107   6.596   9.968   5.514
    8CHTO   O54 3108   6.399   9.942   5.466
    8CHTO  H133 3109   6.424   9.938   5.375
    8CHTO   C75 3110   6.483   9.932   0.070
    8CHTO  H147 3111   6.576   9.912   0.126
    8CHTO   N13 3112   6.447   0.071   0.105
    8CHTO  H139 3113   6.526   0.139   0.076
    8CHTO  H140 3114   6.432   0.080   0.212
    8CHTO   C76 3115   6.374   9.827   0.124
    8CHTO  H148 3116   6.276   9.855   0.084
    8CHTO   O49 3117   6.406   9.690   0.083
    8CHTO   C77 3118   6.427   9.671   5.577
    8CHTO  H149 3119   6.338   9.698   5.522
    8CHTO   C88 3120   6.449   9.521   5.553
    8CHTO   O58 3121   6.468   9.489   5.411
    8CHTO  H136 3122   6.389   9.506   5.363
    8CHTO   O51 3123   6.377   9.822   0.286
    8CHTO   C78 3124   6.256   9.737   0.346
    8CHTO  H150 3125   6.198   9.688   0.264
    8CHTO   C80 3126   6.161   9.827   0.427
    8CHTO  H152 3127   6.220   9.876   0.509
    8CHTO   O55 3128   6.114   9.930   0.338
    8CHTO  H134 3129   6.062   9.992   0.385
    8CHTO   C84 3130   6.043   9.742   0.490
    8CHTO  H156 3131   5.985   9.701   0.407
    8CHTO   N15 3132   5.949   9.825   0.572
    8CHTO  H143 3133   6.001   9.869   0.655
    8CHTO  H144 3134   5.869   9.764   0.609
    8CHTO   C87 3135   6.101   9.624   0.571
    8CHTO  H159 3136   6.151   9.661   0.661
    8CHTO   O53 3137   6.200   9.546   0.483
    8CHTO   C82 3138   6.310   9.625   0.437
    8CHTO  H154 3139   6.363   9.668   0.522
    8CHTO   C89 3140   6.410   9.531   0.365
    8CHTO   O59 3141   6.349   9.460   0.257
    8CHTO  H137 3142   6.289   9.396   0.291
    8CHTO   O45 3143   5.984   9.520   0.616
    8CHTO   C67 3144   6.033   9.402   0.680
    8CHTO  H124 3145   6.133   9.380   0.644
    8CHTO   C65 3146   6.039   9.421   0.836
    8CHTO  H122 3147   5.963   9.496   0.861
    8CHTO   O44 3148   6.170   9.477   0.863
    8CHTO  H102 3149   6.178   9.562   0.826
    8CHTO   C63 3150   5.997   9.292   0.917
    8CHTO  H120 3151   5.888   9.287   0.917
    8CHTO   N11 3152   6.026   9.295   1.064
    8CHTO  H108 3153   5.980   9.211   1.112
    8CHTO  H109 3154   6.132   9.292   1.080
    8CHTO   C61 3155   6.046   9.164   0.842
    8CHTO  H118 3156   6.008   9.078   0.899
    8CHTO   O40 3157   5.988   9.154   0.709
    8CHTO   C68 3158   5.947   9.275   0.638
    8CHTO  H125 3159   5.839   9.294   0.658
    8CHTO   C72 3160   5.960   9.241   0.488
    8CHTO   O48 3161   5.922   9.347   0.399
    8CHTO  H105 3162   5.984   9.417   0.405
    8CHTO   O38 3163   6.190   9.154   0.833
    8CHTO   C55 3164   6.240   9.029   0.779
    8CHTO  H112 3165   6.164   8.983   0.715
    8CHTO   C56 3166   6.286   8.931   0.895
    8CHTO  H113 3167   6.364   8.983   0.953
    8CHTO   O42 3168   6.177   8.905   0.985
    8CHTO  H100 3169   6.154   8.984   1.031
    8CHTO   C57 3170   6.342   8.796   0.833
    8CHTO  H114 3171   6.256   8.744   0.792
    8CHTO   N10 3172   6.404   8.706   0.933
    8CHTO  H106 3173   6.394   8.603   0.902
    8CHTO  H107 3174   6.357   8.718   1.030
    8CHTO   C58 3175   6.442   8.825   0.718
    8CHTO  H115 3176   6.538   8.862   0.760
    8CHTO   O37 3177   6.392   8.924   0.626
    8CHTO   C59 3178   6.363   9.051   0.687
    8CHTO  H116 3179   6.449   9.087   0.743
    8CHTO   C70 3180   6.333   9.149   0.573
    8CHTO   O46 3181   6.351   9.285   0.613
    8CHTO  H103 3182   6.333   9.342   0.541
    8CHTO   O39 3183   6.473   8.684   0.627
    8CHTO   C60 3184   6.367   8.642   0.538
    8CHTO  H117 3185   6.271   8.672   0.581
    8CHTO   C62 3186   6.380   8.708   0.397
    8CHTO  H119 3187   6.383   8.818   0.413
    8CHTO   O43 3188   6.504   8.669   0.335
    8CHTO  H101 3189   6.577   8.704   0.384
    8CHTO   C66 3190   6.250   8.672   0.310
    8CHTO  H123 3191   6.162   8.704   0.365
    8CHTO   N12 3192   6.245   8.745   0.180
    8CHTO  H110 3193   6.330   8.810   0.169
    8CHTO  H111 3194   6.153   8.800   0.171
    8CHTO   C69 3195   6.240   8.518   0.292
    8CHTO  H126 3196   6.325   8.481   0.230
    8CHTO   O41 3197   6.244   8.447   0.435
    8CHTO   C64 3198   6.363   8.487   0.523
    8CHTO  H121 3199   6.458   8.452   0.476
    8CHTO   C71 3200   6.347   8.413   0.659
    8CHTO   O47 3201   6.467   8.418   0.737
    8CHTO  H104 3202   6.482   8.505   0.767
    8CHTO   O34 3203   6.104   8.478   0.217
    8CHTO   C49 3204   5.964   8.443   0.274
    8CHTO   H91 3205   5.973   8.343   0.315
    8CHTO   C47 3206   5.861   8.443   0.159
    8CHTO   H89 3207   5.766   8.402   0.200
    8CHTO   O33 3208   5.909   8.355   0.056
    8CHTO   H70 3209   5.907   8.266   0.086
    8CHTO   C45 3210   5.839   8.593   0.105
    8CHTO   H87 3211   5.935   8.627   0.063
    8CHTO    N8 3212   5.737   8.596   5.630
    8CHTO   H75 3213   5.732   8.695   5.588
    8CHTO   H76 3214   5.765   8.525   5.553
    8CHTO   C43 3215   5.808   8.699   0.224
    8CHTO   H85 3216   5.825   8.797   0.180
    8CHTO   O29 3217   5.894   8.676   0.338
    8CHTO   C50 3218   5.918   8.541   0.384
    8CHTO   H92 3219   5.999   8.548   0.459
    8CHTO   C54 3220   5.799   8.487   0.468
    8CHTO   O36 3221   5.826   8.358   0.525
    8CHTO   H72 3222   5.830   8.293   0.458
    8CHTO   O27 3223   5.670   8.701   0.269
    8CHTO   C37 3224   5.587   8.804   0.325
    8CHTO   H79 3225   5.488   8.762   0.349
    8CHTO   C38 3226   5.646   8.861   0.458
    8CHTO   H80 3227   5.752   8.883   0.442
    8CHTO   O31 3228   5.633   8.757   0.557
    8CHTO   H68 3229   5.678   8.782   0.636
    8CHTO   C39 3230   5.573   8.993   0.508
    8CHTO   H81 3231   5.472   8.965   0.538
    8CHTO    N7 3232   5.638   9.057   0.628
    8CHTO   H73 3233   5.568   9.061   0.710
    8CHTO   H74 3234   5.727   9.003   0.657
    8CHTO   C40 3235   5.558   9.095   0.389
    8CHTO   H82 3236   5.656   9.133   0.359
    8CHTO   O26 3237   5.491   9.028   0.281
    8CHTO   C41 3238   5.567   8.919   0.221
    8CHTO   H83 3239   5.664   8.956   0.187
    8CHTO   C52 3240   5.487   8.870   0.098
    8CHTO   O35 3241   5.471   8.975   5.629
    8CHTO   H71 3242   5.416   9.044   0.029
    8CHTO   O28 3243   5.474   9.208   0.422
    8CHTO   C42 3244   5.461   9.327   0.337
    8CHTO   H84 3245   5.377   9.381   0.382
    8CHTO   C44 3246   5.419   9.302   0.188
    8CHTO   H86 3247   5.497   9.243   0.140
    8CHTO   O32 3248   5.297   9.225   0.191
    8CHTO   H69 3249   5.227   9.275   0.229
    8CHTO   C48 3250   5.402   9.437   0.107
    8CHTO   H90 3251   5.315   9.488   0.147
    8CHTO    N9 3252   5.372   9.411   5.596
    8CHTO   H77 3253   5.280   9.354   5.587
    8CHTO   H78 3254   5.362   9.505   5.543
    8CHTO   C51 3255   5.527   9.531   0.125
    8CHTO   H93 3256   5.613   9.486   0.074
    8CHTO   O30 3257   5.554   9.551   0.265
    8CHTO   C46 3258   5.584   9.422   0.343
    8CHTO   H88 3259   5.669   9.373   0.296
    8CHTO   C53 3260   5.620   9.463   0.488
    8CHTO   O72 3261   5.517   9.540   0.551
    8CHTO  H199 3262   5.512   9.625   0.510
    8CHTO   O22 3263   5.501   9.664   0.076
    8CHTO   C31 3264   5.602   9.743   0.004
    8CHTO   H59 3265   5.561   9.845   5.631
    8CHTO   C29 3266   5.738   9.756   0.077
    8CHTO   H57 3267   5.774   9.654   0.099
    8CHTO   O21 3268   5.713   9.818   0.205
    8CHTO   H37 3269   5.792   9.818   0.256
    8CHTO   C27 3270   5.846   9.831   5.624
    8CHTO   H55 3271   5.812   9.935   5.608
    8CHTO    N5 3272   5.980   9.835   0.055
    8CHTO   H43 3273   6.048   9.893   5.628
    8CHTO   H44 3274   6.017   9.735   0.069
    8CHTO   C25 3275   5.853   9.761   5.484
    8CHTO   H53 3276   5.878   9.655   5.500
    8CHTO   O17 3277   5.722   9.768   5.421
    8CHTO   C32 3278   5.620   9.695   5.491
    8CHTO   H60 3279   5.647   9.589   5.491
    8CHTO   C36 3280   5.489   9.713   5.411
    8CHTO   O25 3281   5.498   9.651   5.283
    8CHTO   H40 3282   5.502   9.557   5.293
    8CHTO   O15 3283   5.958   9.825   5.387
    8CHTO   C19 3284   6.036   9.798   5.268
    8CHTO   H47 3285   5.961   9.774   5.192
    8CHTO   C20 3286   6.120   9.921   5.221
    8CHTO   H48 3287   6.184   9.961   5.302
    8CHTO   O19 3288   6.027   0.024   5.185
    8CHTO   H35 3289   5.984   0.057   5.261
    8CHTO   C21 3290   6.216   9.887   5.099
    8CHTO   H49 3291   6.154   9.864   5.011
    8CHTO    N4 3292   6.305   9.999   5.061
    8CHTO   H41 3293   6.367   9.971   4.977
    8CHTO   H42 3294   6.246   0.085   5.033
    8CHTO   C22 3295   6.295   9.758   5.133
    8CHTO   H50 3296   6.357   9.778   5.220
    8CHTO   O14 3297   6.202   9.652   5.161
    8CHTO   C23 3298   6.126   9.671   5.281
    8CHTO   H51 3299   6.197   9.679   5.365
    8CHTO   C34 3300   6.045   9.542   5.302
    8CHTO   O23 3301   6.131   9.430   5.325
    8CHTO   H38 3302   6.079   9.353   5.338
    8CHTO   O16 3303   6.374   9.707   5.024
    8CHTO   C24 3304   6.485   9.603   5.075
    8CHTO   H52 3305   6.464   9.568   5.176
    8CHTO   C26 3306   6.623   9.671   5.074
    8CHTO   H54 3307   6.641   9.712   4.971
    8CHTO   O20 3308   6.620   9.782   5.165
    8CHTO   H36 3309   6.607   9.752   5.253
    8CHTO   C30 3310   6.736   9.569   5.107
    8CHTO   H58 3311   6.726   9.535   5.211
    8CHTO    N6 3312   6.871   9.631   5.096
    8CHTO   H45 3313   6.948   9.559   5.120
    8CHTO   H46 3314   6.879   9.714   5.165
    8CHTO   C33 3315   6.722   9.442   5.017
    8CHTO   H61 3316   6.739   9.470   4.911
    8CHTO   O18 3317   6.589   9.389   5.029
    8CHTO   C28 3318   6.485   9.477   4.984
    8CHTO   H56 3319   6.502   9.508   4.881
    8CHTO   C35 3320   6.350   9.402   4.993
    8CHTO   O24 3321   6.345   9.286   4.909
    8CHTO   H39 3322   6.404   9.220   4.942
    8CHTO    O9 3323   6.821   9.342   5.048
    8CHTO   C13 3324   6.861   9.246   4.923
    8CHTO   H26 3325   6.888   9.311   4.837
    8CHTO   C11 3326   6.741   9.148   4.887
    8CHTO   H24 3327   6.661   9.208   4.843
    8CHTO    O8 3328   6.689   9.088   5.007
    8CHTO    H3 3329   6.613   9.037   4.987
    8CHTO    C9 3330   6.791   9.046   4.781
    8CHTO   H22 3331   6.825   9.107   4.696
    8CHTO    N2 3332   6.683   8.961   4.725
    8CHTO   H10 3333   6.603   9.022   4.687
    8CHTO   H11 3334   6.722   8.898   4.646
    8CHTO    C7 3335   6.913   8.965   4.837
    8CHTO   H20 3336   6.946   8.903   4.751
    8CHTO    O4 3337   7.021   9.054   4.874
    8CHTO   C14 3338   6.994   9.167   4.960
    8CHTO   H27 3339   7.079   9.237   4.942
    8CHTO   C18 3340   7.000   9.126   5.109
    8CHTO   O13 3341   7.133   9.090   5.148
    8CHTO    H7 3342   7.134   9.067   5.239
    8CHTO    O2 3343   6.876   8.868   4.966
    8CHTO    C1 3344   6.945   8.741   4.977
    8CHTO   H14 3345   6.940   8.710   5.084
    8CHTO    C2 3346   7.097   8.740   4.932
    8CHTO   H15 3347   7.102   8.778   4.829
    8CHTO    O6 3348   7.171   8.826   5.020
    8CHTO    H1 3349   7.259   8.835   4.990
    8CHTO    C3 3350   7.157   8.591   4.936
    8CHTO   H16 3351   7.161   8.559   5.041
    8CHTO    N1 3352   7.296   8.582   4.880
    8CHTO    H8 3353   7.364   8.546   4.956
    8CHTO    H9 3354   7.330   8.678   4.845
    8CHTO    C4 3355   7.058   8.490   4.865
    8CHTO   H17 3356   7.060   8.509   4.757
    8CHTO    O1 3357   6.924   8.503   4.915
    8CHTO    C5 3358   6.865   8.633   4.899
    8CHTO   H18 3359   6.867   8.660   4.793
    8CHTO   C16 3360   6.716   8.623   4.945
    8CHTO   O11 3361   6.704   8.577   5.080
    8CHTO    H5 3362   6.613   8.574   5.103
    8CHTO    O3 3363   7.095   8.353   4.894
    8CHTO    C6 3364   7.053   8.257   4.791
    8CHTO   H19 3365   6.976   8.296   4.725
    8CHTO    C8 3366   7.176   8.215   4.705
    8CHTO   H21 3367   7.254   8.178   4.772
    8CHTO    O7 3368   7.222   8.334   4.637
    8CHTO    H2 3369   7.303   8.316   4.593
    8CHTO   C12 3370   7.136   8.101   4.603
    8CHTO   H25 3371   7.063   8.146   4.532
    8CHTO    N3 3372   7.254   8.055   4.523
    8CHTO   H12 3373   7.235   8.068   4.417
    8CHTO   H13 3374   7.279   7.952   4.545
    8CHTO   C15 3375   7.063   7.985   4.680
    8CHTO   H28 3376   7.132   7.929   4.745
    8CHTO   O10 3377   6.992   7.886   4.584
    8CHTO    H4 3378   6.960   7.812   4.632
    8CHTO    O5 3379   6.953   8.036   4.758
    8CHTO   C10 3380   6.992   8.130   4.859
    8CHTO   H23 3381   7.066   8.083   4.925
    8CHTO   C17 3382   6.867   8.159   4.943
    8CHTO   O12 3383   6.896   8.233   5.062
    8CHTO    H6 3384   6.944   8.179   5.122
    9CHTO  H203 3385   6.952   4.740   4.179
    9CHTO   O82 3386   6.994   4.657   4.163
    9CHTO  C123 3387   7.124   4.677   4.106
    9CHTO  H227 3388   7.184   4.738   4.175
    9CHTO   O77 3389   7.178   4.541   4.101
    9CHTO  C118 3390   7.313   4.533   4.050
    9CHTO  H222 3391   7.379   4.597   4.111
    9CHTO  C125 3392   7.361   4.383   4.063
    9CHTO   O84 3393   7.371   4.343   4.200
    9CHTO  H205 3394   7.442   4.389   4.242
    9CHTO  C114 3395   7.314   4.579   3.904
    9CHTO  H218 3396   7.248   4.515   3.846
    9CHTO  C116 3397   7.260   4.725   3.892
    9CHTO  H220 3398   7.333   4.795   3.939
    9CHTO   O79 3399   7.255   4.761   3.752
    9CHTO  H201 3400   7.194   4.707   3.706
    9CHTO  C120 3401   7.119   4.739   3.962
    9CHTO  H224 3402   7.047   4.682   3.899
    9CHTO   N21 3403   7.071   4.880   3.965
    9CHTO  H211 3404   7.108   4.935   3.879
    9CHTO  H212 3405   6.964   4.883   3.968
    9CHTO   O75 3406   7.451   4.566   3.859
    9CHTO  C112 3407   7.461   4.509   3.705
    9CHTO  H216 3408   7.375   4.547   3.647
    9CHTO   O73 3409   7.461   4.365   3.712
    9CHTO  C113 3410   7.462   4.301   3.584
    9CHTO  H217 3411   7.375   4.336   3.526
    9CHTO  C124 3412   7.444   4.150   3.606
    9CHTO   O83 3413   7.318   4.119   3.666
    9CHTO  H204 3414   7.311   4.026   3.677
    9CHTO  C109 3415   7.593   4.333   3.508
    9CHTO  H213 3416   7.676   4.289   3.567
    9CHTO  C110 3417   7.611   4.488   3.497
    9CHTO  H214 3418   7.536   4.526   3.427
    9CHTO   O78 3419   7.740   4.517   3.441
    9CHTO  H200 3420   7.745   4.487   3.352
    9CHTO  C111 3421   7.594   4.557   3.636
    9CHTO  H215 3422   7.678   4.526   3.700
    9CHTO   N19 3423   7.597   4.706   3.630
    9CHTO  H207 3424   7.678   4.744   3.691
    9CHTO  H208 3425   7.609   4.741   3.529
    9CHTO   O74 3426   7.591   4.269   3.376
    9CHTO  C115 3427   7.732   4.221   3.326
    9CHTO  H219 3428   7.810   4.293   3.349
    9CHTO   O76 3429   7.778   4.085   3.398
    9CHTO  C122 3430   7.697   3.971   3.363
    9CHTO  H226 3431   7.595   3.990   3.395
    9CHTO  C126 3432   7.747   3.847   3.445
    9CHTO   O85 3433   7.736   3.867   3.587
    9CHTO  H206 3434   7.646   3.871   3.612
    9CHTO  C121 3435   7.703   3.947   3.207
    9CHTO  H225 3436   7.809   3.933   3.178
    9CHTO   O81 3437   7.633   3.828   3.169
    9CHTO  H202 3438   7.542   3.834   3.192
    9CHTO  C119 3439   7.646   4.073   3.134
    9CHTO  H223 3440   7.659   4.053   3.028
    9CHTO  C117 3441   7.725   4.205   3.169
    9CHTO  H221 3442   7.677   4.297   3.136
    9CHTO   N20 3443   7.862   4.209   3.106
    9CHTO  H209 3444   7.939   4.222   3.181
    9CHTO  H210 3445   7.868   4.287   3.032
    9CHTO   O80 3446   7.489   4.088   3.145
    9CHTO  C103 3447   7.411   4.190   3.045
    9CHTO  H190 3448   7.454   4.290   3.053
    9CHTO  C101 3449   7.404   4.150   2.893
    9CHTO  H188 3450   7.365   4.049   2.885
    9CHTO   O68 3451   7.548   4.151   2.835
    9CHTO  H168 3452   7.546   4.120   2.746
    9CHTO   C99 3453   7.307   4.250   2.814
    9CHTO  H186 3454   7.348   4.353   2.820
    9CHTO   N17 3455   7.294   4.218   2.668
    9CHTO  H174 3456   7.392   4.218   2.622
    9CHTO  H175 3457   7.245   4.123   2.655
    9CHTO   C97 3458   7.168   4.256   2.885
    9CHTO  H184 3459   7.117   4.159   2.873
    9CHTO   O64 3460   7.186   4.292   3.023
    9CHTO  C104 3461   7.263   4.198   3.100
    9CHTO  H191 3462   7.218   4.099   3.096
    9CHTO  C108 3463   7.259   4.241   3.248
    9CHTO   O71 3464   7.321   4.368   3.270
    9CHTO  H171 3465   7.268   4.436   3.232
    9CHTO   O62 3466   7.084   4.365   2.838
    9CHTO   C91 3467   6.975   4.332   2.749
    9CHTO  H178 3468   7.015   4.268   2.671
    9CHTO   C92 3469   6.928   4.463   2.677
    9CHTO  H179 3470   7.015   4.518   2.639
    9CHTO   O66 3471   6.853   4.426   2.560
    9CHTO  H166 3472   6.778   4.376   2.582
    9CHTO   C93 3473   6.835   4.555   2.766
    9CHTO  H180 3474   6.782   4.622   2.698
    9CHTO   N16 3475   6.911   4.645   2.856
    9CHTO  H172 3476   6.975   4.710   2.798
    9CHTO  H173 3477   6.842   4.705   2.915
    9CHTO   C94 3478   6.729   4.468   2.845
    9CHTO  H181 3479   6.751   4.464   2.952
    9CHTO   O61 3480   6.726   4.332   2.799
    9CHTO   C95 3481   6.849   4.260   2.817
    9CHTO  H182 3482   6.867   4.248   2.924
    9CHTO  C106 3483   6.830   4.116   2.758
    9CHTO   O69 3484   6.715   4.051   2.813
    9CHTO  H169 3485   6.706   3.965   2.775
    9CHTO   O63 3486   6.589   4.527   2.822
    9CHTO   C96 3487   6.488   4.509   2.943
    9CHTO  H183 3488   6.539   4.539   3.034
    9CHTO   C98 3489   6.431   4.365   2.964
    9CHTO  H185 3490   6.399   4.324   2.866
    9CHTO   O67 3491   6.539   4.280   3.007
    9CHTO  H167 3492   6.603   4.270   2.939
    9CHTO  C102 3493   6.309   4.358   3.069
    9CHTO  H189 3494   6.354   4.377   3.168
    9CHTO   N18 3495   6.244   4.225   3.079
    9CHTO  H176 3496   6.247   4.189   3.181
    9CHTO  H177 3497   6.142   4.228   3.045
    9CHTO  C105 3498   6.209   4.472   3.039
    9CHTO  H192 3499   6.157   4.450   2.945
    9CHTO   O65 3500   6.275   4.599   3.028
    9CHTO  C100 3501   6.369   4.608   2.920
    9CHTO  H187 3502   6.318   4.582   2.826
    9CHTO  C107 3503   6.417   4.754   2.908
    9CHTO   O70 3504   6.308   4.844   2.884
    9CHTO  H170 3505   6.273   4.830   2.798
    9CHTO   O57 3506   6.101   4.480   3.162
    9CHTO   C85 3507   5.971   4.540   3.143
    9CHTO  H157 3508   5.920   4.479   3.066
    9CHTO   C83 3509   5.982   4.685   3.083
    9CHTO  H155 3510   6.021   4.676   2.981
    9CHTO   O56 3511   6.079   4.761   3.157
    9CHTO  H135 3512   6.049   4.775   3.245
    9CHTO   C81 3513   5.840   4.749   3.077
    9CHTO  H153 3514   5.775   4.683   3.019
    9CHTO   N14 3515   5.837   4.878   3.002
    9CHTO  H141 3516   5.876   4.864   2.904
    9CHTO  H142 3517   5.736   4.913   2.995
    9CHTO   C79 3518   5.782   4.760   3.223
    9CHTO  H151 3519   5.682   4.804   3.214
    9CHTO   O52 3520   5.765   4.626   3.276
    9CHTO   C86 3521   5.888   4.546   3.278
    9CHTO  H158 3522   5.949   4.592   3.358
    9CHTO   C90 3523   5.855   4.404   3.327
    9CHTO   O60 3524   5.817   4.404   3.464
    9CHTO  H138 3525   5.890   4.425   3.518
    9CHTO   O50 3526   5.860   4.839   3.315
    9CHTO   C73 3527   5.878   4.933   3.422
    9CHTO  H145 3528   5.792   4.930   3.491
    9CHTO   C74 3529   5.889   5.078   3.365
    9CHTO  H146 3530   5.795   5.098   3.310
    9CHTO   O54 3531   5.893   5.172   3.474
    9CHTO  H133 3532   5.811   5.172   3.520
    9CHTO   C75 3533   6.015   5.085   3.271
    9CHTO  H147 3534   5.999   5.015   3.187
    9CHTO   N13 3535   6.037   5.216   3.206
    9CHTO  H139 3536   5.951   5.242   3.145
    9CHTO  H140 3537   6.049   5.292   3.281
    9CHTO   C76 3538   6.145   5.033   3.348
    9CHTO  H148 3539   6.173   5.109   3.421
    9CHTO   O49 3540   6.123   4.905   3.416
    9CHTO   C77 3541   6.008   4.901   3.502
    9CHTO  H149 3542   6.020   4.974   3.581
    9CHTO   C88 3543   6.004   4.764   3.570
    9CHTO   O58 3544   5.892   4.752   3.667
    9CHTO  H136 3545   5.810   4.754   3.621
    9CHTO   O51 3546   6.259   5.002   3.243
    9CHTO   C78 3547   6.399   5.023   3.297
    9CHTO  H150 3548   6.399   5.033   3.408
    9CHTO   C80 3549   6.460   5.151   3.236
    9CHTO  H152 3550   6.455   5.143   3.125
    9CHTO   O55 3551   6.379   5.263   3.277
    9CHTO  H134 3552   6.294   5.259   3.236
    9CHTO   C84 3553   6.611   5.170   3.279
    9CHTO  H156 3554   6.613   5.183   3.388
    9CHTO   N15 3555   6.676   5.291   3.219
    9CHTO  H143 3556   6.672   5.286   3.112
    9CHTO  H144 3557   6.625   5.379   3.251
    9CHTO   C87 3558   6.691   5.041   3.246
    9CHTO  H159 3559   6.696   5.027   3.138
    9CHTO   O53 3560   6.617   4.919   3.313
    9CHTO   C82 3561   6.485   4.900   3.262
    9CHTO  H154 3562   6.488   4.886   3.154
    9CHTO   C89 3563   6.425   4.771   3.323
    9CHTO   O59 3564   6.497   4.655   3.282
    9CHTO  H137 3565   6.583   4.655   3.321
    9CHTO   O45 3566   6.847   5.054   3.303
    9CHTO   C67 3567   6.901   4.937   3.365
    9CHTO  H124 3568   6.822   4.886   3.420
    9CHTO   C65 3569   6.961   4.838   3.260
    9CHTO  H122 3570   6.998   4.899   3.178
    9CHTO   O44 3571   6.852   4.758   3.212
    9CHTO  H102 3572   6.825   4.696   3.277
    9CHTO   C63 3573   7.089   4.762   3.314
    9CHTO  H120 3574   7.174   4.830   3.308
    9CHTO   N11 3575   7.138   4.647   3.232
    9CHTO  H108 3576   7.151   4.678   3.131
    9CHTO  H109 3577   7.067   4.567   3.237
    9CHTO   C61 3578   7.069   4.731   3.467
    9CHTO  H118 3579   7.162   4.684   3.503
    9CHTO   O40 3580   7.050   4.853   3.546
    9CHTO   C68 3581   7.008   4.974   3.475
    9CHTO  H125 3582   7.097   5.019   3.425
    9CHTO   C72 3583   6.955   5.080   3.576
    9CHTO   O48 3584   6.841   5.036   3.650
    9CHTO  H105 3585   6.814   5.105   3.708
    9CHTO   O38 3586   6.957   4.641   3.487
    9CHTO   C55 3587   6.933   4.594   3.621
    9CHTO  H112 3588   6.974   4.666   3.694
    9CHTO   C56 3589   6.992   4.448   3.641
    9CHTO  H113 3590   6.950   4.385   3.562
    9CHTO   O42 3591   7.134   4.451   3.620
    9CHTO  H100 3592   7.170   4.365   3.625
    9CHTO   C57 3593   6.954   4.393   3.784
    9CHTO  H114 3594   7.006   4.455   3.857
    9CHTO   N10 3595   6.997   4.252   3.806
    9CHTO  H106 3596   7.016   4.235   3.911
    9CHTO  H107 3597   6.921   4.183   3.772
    9CHTO   C58 3598   6.801   4.409   3.806
    9CHTO  H115 3599   6.746   4.341   3.737
    9CHTO   O37 3600   6.759   4.545   3.783
    9CHTO   C59 3601   6.780   4.589   3.648
    9CHTO  H116 3602   6.730   4.521   3.578
    9CHTO   C70 3603   6.716   4.728   3.633
    9CHTO   O46 3604   6.574   4.726   3.646
    9CHTO  H103 3605   6.550   4.704   3.735
    9CHTO   O39 3606   6.760   4.377   3.960
    9CHTO   C60 3607   6.618   4.378   3.985
    9CHTO  H117 3608   6.573   4.467   3.940
    9CHTO   C62 3609   6.547   4.252   3.925
    9CHTO  H119 3610   6.560   4.258   3.815
    9CHTO   O43 3611   6.613   4.133   3.974
    9CHTO  H101 3612   6.700   4.127   3.938
    9CHTO   C66 3613   6.390   4.256   3.959
    9CHTO  H123 3614   6.348   4.348   3.920
    9CHTO   N12 3615   6.316   4.145   3.894
    9CHTO  H110 3616   6.211   4.151   3.920
    9CHTO  H111 3617   6.330   4.149   3.787
    9CHTO   C69 3618   6.374   4.257   4.113
    9CHTO  H126 3619   6.423   4.166   4.154
    9CHTO   O41 3620   6.444   4.384   4.169
    9CHTO   C64 3621   6.593   4.386   4.138
    9CHTO  H121 3622   6.642   4.299   4.185
    9CHTO   C71 3623   6.656   4.514   4.197
    9CHTO   O47 3624   6.649   4.512   4.340
    9CHTO  H104 3625   6.689   4.589   4.375
    9CHTO   O34 3626   6.224   4.257   4.158
    9CHTO   C49 3627   6.125   4.231   4.271
    9CHTO   H91 3628   6.026   4.252   4.229
    9CHTO   C47 3629   6.152   4.328   4.389
    9CHTO   H89 3630   6.063   4.315   4.454
    9CHTO   O33 3631   6.156   4.464   4.343
    9CHTO   H70 3632   6.230   4.478   4.287
    9CHTO   C45 3633   6.288   4.290   4.469
    9CHTO   H87 3634   6.371   4.348   4.425
    9CHTO    N8 3635   6.273   4.332   4.611
    9CHTO   H75 3636   6.297   4.250   4.678
    9CHTO   H76 3637   6.173   4.367   4.632
    9CHTO   C43 3638   6.329   4.136   4.444
    9CHTO   H85 3639   6.380   4.135   4.349
    9CHTO   O29 3640   6.209   4.056   4.441
    9CHTO   C50 3641   6.128   4.084   4.324
    9CHTO   H92 3642   6.165   4.020   4.242
    9CHTO   C54 3643   5.985   4.031   4.350
    9CHTO   O36 3644   5.984   3.888   4.358
    9CHTO   H72 3645   5.896   3.858   4.372
    9CHTO   O27 3646   6.427   4.083   4.535
    9CHTO   C37 3647   6.570   4.082   4.551
    9CHTO   H79 3648   6.603   3.982   4.583
    9CHTO   C38 3649   6.646   4.110   4.416
    9CHTO   H80 3650   6.601   4.200   4.371
    9CHTO   O31 3651   6.621   3.999   4.328
    9CHTO   H68 3652   6.661   3.920   4.362
    9CHTO   C39 3653   6.801   4.135   4.438
    9CHTO   H81 3654   6.845   4.042   4.475
    9CHTO    N7 3655   6.874   4.173   4.313
    9CHTO   H73 3656   6.864   4.094   4.240
    9CHTO   H74 3657   6.979   4.189   4.335
    9CHTO   C40 3658   6.816   4.244   4.551
    9CHTO   H82 3659   6.766   4.335   4.517
    9CHTO   O26 3660   6.756   4.191   4.670
    9CHTO   C41 3661   6.611   4.184   4.660
    9CHTO   H83 3662   6.571   4.284   4.634
    9CHTO   C52 3663   6.556   4.145   4.799
    9CHTO   O35 3664   6.587   4.246   4.902
    9CHTO   H71 3665   6.540   4.325   4.884
    9CHTO   O28 3666   6.952   4.279   4.589
    9CHTO   C42 3667   6.975   4.413   4.645
    9CHTO   H84 3668   7.078   4.406   4.680
    9CHTO   C44 3669   6.888   4.448   4.772
    9CHTO   H86 3670   6.786   4.413   4.755
    9CHTO   O32 3671   6.941   4.373   4.883
    9CHTO   H69 3672   6.925   4.281   4.870
    9CHTO   C48 3673   6.876   4.603   4.803
    9CHTO   H90 3674   6.973   4.640   4.836
    9CHTO    N9 3675   6.780   4.630   4.916
    9CHTO   H77 3676   6.776   4.736   4.935
    9CHTO   H78 3677   6.682   4.593   4.891
    9CHTO   C51 3678   6.837   4.670   4.668
    9CHTO   H93 3679   6.754   4.613   4.626
    9CHTO   O30 3680   6.954   4.662   4.585
    9CHTO   C46 3681   6.973   4.523   4.532
    9CHTO   H88 3682   6.892   4.502   4.462
    9CHTO   C53 3683   7.107   4.526   4.455
    9CHTO   O72 3684   7.133   4.404   4.386
    9CHTO  H199 3685   7.151   4.336   4.447
    9CHTO   O22 3686   6.802   4.810   4.675
    9CHTO   C31 3687   6.714   4.871   4.572
    9CHTO   H59 3688   6.688   4.972   4.611
    9CHTO   C29 3689   6.783   4.891   4.435
    9CHTO   H57 3690   6.813   4.792   4.398
    9CHTO   O21 3691   6.904   4.966   4.457
    9CHTO   H37 3692   6.954   4.970   4.378
    9CHTO   C27 3693   6.687   4.959   4.330
    9CHTO   H55 3694   6.663   5.061   4.365
    9CHTO    N5 3695   6.747   4.969   4.194
    9CHTO   H43 3696   6.837   5.028   4.199
    9CHTO   H44 3697   6.769   4.870   4.156
    9CHTO   C25 3698   6.552   4.879   4.326
    9CHTO   H53 3699   6.571   4.777   4.289
    9CHTO   O17 3700   6.496   4.871   4.460
    9CHTO   C32 3701   6.578   4.797   4.551
    9CHTO   H60 3702   6.598   4.698   4.509
    9CHTO   C36 3703   6.499   4.778   4.683
    9CHTO   O25 3704   6.381   4.699   4.663
    9CHTO   H40 3705   6.319   4.747   4.613
    9CHTO   O15 3706   6.444   4.945   4.234
    9CHTO   C19 3707   6.337   4.881   4.159
    9CHTO   H47 3708   6.278   4.965   4.119
    9CHTO   C20 3709   6.386   4.793   4.040
    9CHTO   H48 3710   6.448   4.709   4.073
    9CHTO   O19 3711   6.468   4.878   3.956
    9CHTO   H35 3712   6.548   4.898   3.999
    9CHTO   C21 3713   6.264   4.735   3.958
    9CHTO   H49 3714   6.212   4.818   3.910
    9CHTO    N4 3715   6.306   4.644   3.848
    9CHTO   H41 3716   6.219   4.609   3.793
    9CHTO   H42 3717   6.358   4.558   3.889
    9CHTO   C22 3718   6.162   4.668   4.055
    9CHTO   H50 3719   6.205   4.574   4.092
    9CHTO   O14 3720   6.129   4.754   4.165
    9CHTO   C23 3721   6.240   4.797   4.246
    9CHTO   H51 3722   6.288   4.706   4.287
    9CHTO   C34 3723   6.184   4.878   4.364
    9CHTO   O23 3724   6.106   4.796   4.452
    9CHTO   H38 3725   6.162   4.736   4.498
    9CHTO   O16 3726   6.034   4.646   3.991
    9CHTO   C24 3727   5.968   4.500   4.019
    9CHTO   H52 3728   6.033   4.437   4.080
    9CHTO   C26 3729   5.942   4.431   3.884
    9CHTO   H54 3730   5.876   4.498   3.822
    9CHTO   O20 3731   6.068   4.416   3.817
    9CHTO   H36 3732   6.054   4.384   3.730
    9CHTO   C30 3733   5.870   4.294   3.904
    9CHTO   H58 3734   5.942   4.224   3.949
    9CHTO    N6 3735   5.831   4.234   3.773
    9CHTO   H45 3736   5.875   4.136   3.762
    9CHTO   H46 3737   5.724   4.227   3.763
    9CHTO   C33 3738   5.750   4.303   4.003
    9CHTO   H61 3739   5.662   4.347   3.953
    9CHTO   O18 3740   5.781   4.384   4.119
    9CHTO   C28 3741   5.834   4.515   4.095
    9CHTO   H56 3742   5.765   4.574   4.034
    9CHTO   C35 3743   5.854   4.587   4.230
    9CHTO   O24 3744   5.731   4.622   4.294
    9CHTO   H39 3745   5.687   4.545   4.322
    9CHTO    O9 3746   5.710   4.170   4.042
    9CHTO   C13 3747   5.562   4.111   3.996
    9CHTO   H26 3748   5.561   4.104   3.885
    9CHTO   C11 3749   5.446   4.204   4.050
    9CHTO   H24 3750   5.447   4.297   3.992
    9CHTO    O8 3751   5.474   4.238   4.187
    9CHTO    H3 3752   5.410   4.299   4.218
    9CHTO    C9 3753   5.310   4.133   4.029
    9CHTO   H22 3754   5.305   4.108   3.921
    9CHTO    N2 3755   5.192   4.220   4.052
    9CHTO   H10 3756   5.198   4.308   3.990
    9CHTO   H11 3757   5.186   4.247   4.156
    9CHTO    C7 3758   5.308   4.000   4.111
    9CHTO   H20 3759   5.211   3.952   4.088
    9CHTO    O4 3760   5.414   3.911   4.069
    9CHTO   C14 3761   5.548   3.961   4.049
    9CHTO   H27 3762   5.593   3.895   3.971
    9CHTO   C18 3763   5.631   3.938   4.179
    9CHTO   O13 3764   5.651   3.799   4.204
    9CHTO    H7 3765   5.700   3.788   4.283
    9CHTO    O2 3766   5.322   4.026   4.275
    9CHTO    C1 3767   5.238   3.945   4.359
    9CHTO   H14 3768   5.231   3.842   4.316
    9CHTO    C2 3769   5.091   4.002   4.379
    9CHTO   H15 3770   5.103   4.107   4.408
    9CHTO    O6 3771   5.020   3.994   4.255
    9CHTO    H1 3772   4.935   4.035   4.263
    9CHTO    C3 3773   5.011   3.921   4.495
    9CHTO   H16 3774   4.986   3.821   4.456
    9CHTO    N1 3775   4.881   3.988   4.531
    9CHTO    H8 3776   4.818   3.993   4.443
    9CHTO    H9 3777   4.831   3.931   4.608
    9CHTO    C4 3778   5.102   3.897   4.621
    9CHTO   H17 3779   5.115   3.991   4.675
    9CHTO    O1 3780   5.230   3.844   4.581
    9CHTO    C5 3781   5.306   3.932   4.498
    9CHTO   H18 3782   5.308   4.031   4.543
    9CHTO   C16 3783   5.451   3.877   4.493
    9CHTO   O11 3784   5.457   3.743   4.442
    9CHTO    H5 3785   5.433   3.742   4.352
    9CHTO    O3 3786   5.044   3.799   4.710
    9CHTO    C6 3787   5.125   3.762   4.828
    9CHTO   H19 3788   5.228   3.796   4.820
    9CHTO    C8 3789   5.066   3.825   4.958
    9CHTO   H21 3790   4.962   3.794   4.967
    9CHTO    O7 3791   5.074   3.968   4.945
    9CHTO    H2 3792   5.163   3.996   4.941
    9CHTO   C12 3793   5.147   3.772   5.085
    9CHTO   H25 3794   5.249   3.816   5.077
    9CHTO    N3 3795   5.087   3.823   5.213
    9CHTO   H12 3796   5.160   3.880   5.268
    9CHTO   H13 3797   5.049   3.742   5.273
    9CHTO   C15 3798   5.159   3.615   5.079
    9CHTO   H28 3799   5.063   3.567   5.099
    9CHTO   O10 3800   5.266   3.562   5.177
    9CHTO    H4 3801   5.261   3.468   5.182
    9CHTO    O5 3802   5.211   3.570   4.953
    9CHTO   C10 3803   5.129   3.608   4.841
    9CHTO   H23 3804   5.028   3.569   4.856
    9CHTO   C17 3805   5.185   3.541   4.714
    9CHTO   O12 3806   5.179   3.398   4.721
    9CHTO    H6 3807   5.090   3.370   4.719
   10CHTO  H203 3808   5.259   6.701   4.048
   10CHTO   O82 3809   5.283   6.620   4.090
   10CHTO  C123 3810   5.170   6.532   4.096
   10CHTO  H227 3811   5.135   6.512   3.994
   10CHTO   O77 3812   5.227   6.410   4.153
   10CHTO  C118 3813   5.135   6.300   4.162
   10CHTO  H222 3814   5.095   6.279   4.063
   10CHTO  C125 3815   5.215   6.174   4.213
   10CHTO   O84 3816   5.271   6.193   4.343
   10CHTO  H205 3817   5.338   6.258   4.340
   10CHTO  C114 3818   5.019   6.337   4.257
   10CHTO  H218 3819   5.060   6.354   4.357
   10CHTO  C116 3820   4.949   6.468   4.212
   10CHTO  H220 3821   4.893   6.449   4.118
   10CHTO   O79 3822   4.850   6.502   4.311
   10CHTO  H201 3823   4.801   6.577   4.284
   10CHTO  C120 3824   5.053   6.584   4.189
   10CHTO  H224 3825   5.094   6.610   4.289
   10CHTO   N21 3826   4.990   6.707   4.135
   10CHTO  H211 3827   4.987   6.705   4.027
   10CHTO  H212 3828   4.890   6.720   4.175
   10CHTO   O75 3829   4.931   6.222   4.256
   10CHTO  C112 3830   4.902   6.159   4.406
   10CHTO  H216 3831   4.916   6.237   4.482
   10CHTO   O73 3832   4.992   6.048   4.424
   10CHTO  C113 3833   4.982   5.987   4.553
   10CHTO  H217 3834   4.998   6.064   4.632
   10CHTO  C124 3835   5.095   5.884   4.567
   10CHTO   O83 3836   5.225   5.945   4.567
   10CHTO  H204 3837   5.290   5.878   4.575
   10CHTO  C109 3838   4.842   5.922   4.572
   10CHTO  H213 3839   4.834   5.841   4.498
   10CHTO  C110 3840   4.731   6.029   4.548
   10CHTO  H214 3841   4.734   6.099   4.632
   10CHTO   O78 3842   4.602   5.966   4.549
   10CHTO  H200 3843   4.582   5.934   4.635
   10CHTO  C111 3844   4.753   6.106   4.414
   10CHTO  H215 3845   4.737   6.036   4.331
   10CHTO   N19 3846   4.658   6.218   4.395
   10CHTO  H207 3847   4.557   6.181   4.396
   10CHTO  H208 3848   4.677   6.266   4.300
   10CHTO   O74 3849   4.834   5.864   4.706
   10CHTO  C115 3850   4.721   5.748   4.724
   10CHTO  H219 3851   4.620   5.787   4.714
   10CHTO   O76 3852   4.734   5.636   4.610
   10CHTO  C122 3853   4.639   5.529   4.620
   10CHTO  H226 3854   4.667   5.454   4.545
   10CHTO  C126 3855   4.496   5.581   4.577
   10CHTO   O85 3856   4.395   5.480   4.578
   10CHTO  H206 3857   4.414   5.414   4.513
   10CHTO  C121 3858   4.641   5.462   4.763
   10CHTO  H225 3859   4.556   5.391   4.768
   10CHTO   O81 3860   4.760   5.383   4.779
   10CHTO  H202 3861   4.836   5.438   4.777
   10CHTO  C119 3862   4.626   5.566   4.877
   10CHTO  H223 3863   4.527   5.611   4.864
   10CHTO  C117 3864   4.732   5.683   4.867
   10CHTO  H221 3865   4.836   5.654   4.877
   10CHTO   N20 3866   4.709   5.787   4.974
   10CHTO  H209 3867   4.688   5.884   4.932
   10CHTO  H210 3868   4.630   5.758   5.041
   10CHTO   O80 3869   4.611   5.498   5.019
   10CHTO  C103 3870   4.490   5.403   5.044
   10CHTO  H190 3871   4.426   5.397   4.956
   10CHTO  C101 3872   4.527   5.257   5.089
   10CHTO  H188 3873   4.594   5.262   5.175
   10CHTO   O68 3874   4.603   5.187   4.972
   10CHTO  H168 3875   4.633   5.103   5.000
   10CHTO   C99 3876   4.394   5.178   5.132
   10CHTO  H186 3877   4.326   5.172   5.044
   10CHTO   N17 3878   4.419   5.038   5.179
   10CHTO  H174 3879   4.469   4.981   5.101
   10CHTO  H175 3880   4.478   5.039   5.269
   10CHTO   C97 3881   4.318   5.261   5.239
   10CHTO  H184 3882   4.381   5.264   5.329
   10CHTO   O64 3883   4.290   5.394   5.189
   10CHTO  C104 3884   4.406   5.472   5.158
   10CHTO  H191 3885   4.470   5.487   5.245
   10CHTO  C108 3886   4.362   5.612   5.113
   10CHTO   O71 3887   4.295   5.682   5.218
   10CHTO  H171 3888   4.267   5.766   5.187
   10CHTO   O62 3889   4.188   5.207   5.269
   10CHTO   C91 3890   4.133   5.245   5.397
   10CHTO  H178 3891   4.188   5.332   5.434
   10CHTO   C92 3892   4.150   5.132   5.503
   10CHTO  H179 3893   4.100   5.041   5.467
   10CHTO   O66 3894   4.290   5.097   5.512
   10CHTO  H166 3895   4.341   5.170   5.541
   10CHTO   C93 3896   4.093   5.176   0.010
   10CHTO  H180 3897   4.159   5.256   0.048
   10CHTO   N16 3898   4.097   5.068   0.112
   10CHTO  H172 3899   4.060   5.105   0.207
   10CHTO  H173 3900   4.039   4.983   0.079
   10CHTO   C94 3901   3.947   5.234   5.629
   10CHTO  H181 3902   3.875   5.156   5.602
   10CHTO   O61 3903   3.940   5.332   5.524
   10CHTO   C95 3904   3.981   5.285   5.394
   10CHTO  H182 3905   3.921   5.198   5.367
   10CHTO  C106 3906   3.950   5.396   5.287
   10CHTO   O69 3907   4.022   5.517   5.313
   10CHTO  H169 3908   4.000   5.580   5.248
   10CHTO   O63 3909   3.897   5.307   0.136
   10CHTO   C96 3910   3.955   5.455   0.161
   10CHTO  H183 3911   4.014   5.485   0.074
   10CHTO   C98 3912   4.046   5.469   0.286
   10CHTO  H185 3913   3.992   5.429   0.374
   10CHTO   O67 3914   4.161   5.384   0.269
   10CHTO  H167 3915   4.212   5.412   0.196
   10CHTO  C102 3916   4.091   5.621   0.314
   10CHTO  H189 3917   4.165   5.644   0.236
   10CHTO   N18 3918   4.162   5.642   0.443
   10CHTO  H176 3919   4.098   5.612   0.525
   10CHTO  H177 3920   4.253   5.584   0.445
   10CHTO  C105 3921   3.971   5.719   0.296
   10CHTO  H192 3922   3.907   5.714   0.385
   10CHTO   O65 3923   3.889   5.691   0.181
   10CHTO  C100 3924   3.837   5.557   0.179
   10CHTO  H187 3925   3.789   5.538   0.275
   10CHTO  C107 3926   3.726   5.544   0.071
   10CHTO   O70 3927   3.773   5.572   5.572
   10CHTO  H170 3928   3.703   5.560   5.511
   10CHTO   O57 3929   4.038   5.869   0.281
   10CHTO   C85 3930   3.962   5.987   0.313
   10CHTO  H157 3931   3.855   5.960   0.301
   10CHTO   C83 3932   3.993   6.097   0.207
   10CHTO  H155 3933   3.959   6.060   0.110
   10CHTO   O56 3934   4.135   6.115   0.197
   10CHTO  H135 3935   4.156   6.173   0.126
   10CHTO   C81 3936   3.915   6.227   0.241
   10CHTO  H153 3937   3.808   6.203   0.244
   10CHTO   N14 3938   3.925   6.330   0.133
   10CHTO  H141 3939   3.861   6.413   0.155
   10CHTO  H142 3940   4.026   6.365   0.126
   10CHTO   C79 3941   3.956   6.282   0.383
   10CHTO  H151 3942   3.888   6.363   0.407
   10CHTO   O52 3943   3.934   6.178   0.485
   10CHTO   C86 3944   3.991   6.046   0.457
   10CHTO  H158 3945   4.101   6.059   0.472
   10CHTO   C90 3946   3.945   5.948   0.567
   10CHTO   O60 3947   3.998   5.983   0.694
   10CHTO  H138 3948   3.970   5.921   0.759
   10CHTO   O50 3949   4.090   6.335   0.392
   10CHTO   C73 3950   4.226   6.314   0.435
   10CHTO  H145 3951   4.263   6.218   0.396
   10CHTO   C74 3952   4.235   6.309   0.591
   10CHTO  H146 3953   4.165   6.232   0.626
   10CHTO   O54 3954   4.367   6.264   0.626
   10CHTO  H133 3955   4.379   6.174   0.600
   10CHTO   C75 3956   4.200   6.451   0.651
   10CHTO  H147 3957   4.097   6.477   0.621
   10CHTO   N13 3958   4.202   6.456   0.799
   10CHTO  H139 3959   4.301   6.432   0.835
   10CHTO  H140 3960   4.176   6.555   0.833
   10CHTO   C76 3961   4.297   6.560   0.585
   10CHTO  H148 3962   4.399   6.534   0.614
   10CHTO   O49 3963   4.285   6.557   0.439
   10CHTO   C77 3964   4.318   6.429   0.381
   10CHTO  H149 3965   4.422   6.404   0.404
   10CHTO   C88 3966   4.312   6.444   0.228
   10CHTO   O58 3967   4.357   6.321   0.161
   10CHTO  H136 3968   4.352   6.332   0.068
   10CHTO   O51 3969   4.258   6.710   0.629
   10CHTO   C78 3970   4.386   6.807   0.635
   10CHTO  H150 3971   4.465   6.772   0.565
   10CHTO   C80 3972   4.445   6.812   0.778
   10CHTO  H152 3973   4.364   6.843   0.848
   10CHTO   O55 3974   4.486   6.678   0.812
   10CHTO  H134 3975   4.513   6.675   0.901
   10CHTO   C84 3976   4.565   6.914   0.787
   10CHTO  H156 3977   4.645   6.876   0.724
   10CHTO   N15 3978   4.621   6.926   0.926
   10CHTO  H143 3979   4.545   6.959   0.993
   10CHTO  H144 3980   4.659   6.832   0.958
   10CHTO   C87 3981   4.522   7.053   0.731
   10CHTO  H159 3982   4.451   7.100   0.799
   10CHTO   O53 3983   4.459   7.035   0.589
   10CHTO   C82 3984   4.345   6.948   0.590
   10CHTO  H154 3985   4.269   6.988   0.658
   10CHTO   C89 3986   4.281   6.946   0.449
   10CHTO   O59 3987   4.372   6.899   0.349
   10CHTO  H137 3988   4.329   6.898   0.265
   10CHTO   O45 3989   4.652   7.150   0.714
   10CHTO   C67 3990   4.620   7.291   0.710
   10CHTO  H124 3991   4.518   7.306   0.676
   10CHTO   C65 3992   4.637   7.354   0.852
   10CHTO  H122 3993   4.585   7.287   0.920
   10CHTO   O44 3994   4.575   7.484   0.856
   10CHTO  H102 3995   4.622   7.544   0.802
   10CHTO   C63 3996   4.789   7.348   0.893
   10CHTO  H120 3997   4.823   7.245   0.884
   10CHTO   N11 3998   4.819   7.379   1.037
   10CHTO  H108 3999   4.850   7.290   1.089
   10CHTO  H109 4000   4.733   7.420   1.085
   10CHTO   C61 4001   4.875   7.432   0.790
   10CHTO  H118 4002   4.979   7.403   0.810
   10CHTO   O40 4003   4.848   7.398   0.651
   10CHTO   C68 4004   4.713   7.362   0.604
   10CHTO  H125 4005   4.728   7.289   0.522
   10CHTO   C72 4006   4.645   7.486   0.541
   10CHTO   O48 4007   4.711   7.530   0.422
   10CHTO  H105 4008   4.700   7.466   0.354
   10CHTO   O38 4009   4.860   7.576   0.807
   10CHTO   C55 4010   4.976   7.659   0.782
   10CHTO  H112 4011   5.028   7.621   0.693
   10CHTO   C56 4012   5.073   7.668   0.909
   10CHTO  H113 4013   5.010   7.693   0.996
   10CHTO   O42 4014   5.130   7.538   0.936
   10CHTO  H100 4015   5.180   7.541   1.015
   10CHTO   C57 4016   5.187   7.776   0.889
   10CHTO  H114 4017   5.254   7.736   0.813
   10CHTO   N10 4018   5.268   7.801   1.011
   10CHTO  H106 4019   5.352   7.734   1.014
   10CHTO  H107 4020   5.208   7.787   1.100
   10CHTO   C58 4021   5.127   7.909   0.836
   10CHTO  H115 4022   5.066   7.957   0.917
   10CHTO   O37 4023   5.045   7.887   0.721
   10CHTO   C59 4024   4.930   7.804   0.747
   10CHTO  H116 4025   4.872   7.846   0.829
   10CHTO   C70 4026   4.839   7.808   0.623
   10CHTO   O46 4027   4.902   7.763   0.503
   10CHTO  H103 4028   4.841   7.770   0.432
   10CHTO   O39 4029   5.248   8.012   0.788
   10CHTO   C60 4030   5.206   8.149   0.772
   10CHTO  H117 4031   5.102   8.152   0.738
   10CHTO   C62 4032   5.215   8.229   0.906
   10CHTO  H119 4033   5.147   8.177   0.977
   10CHTO   O43 4034   5.349   8.222   0.958
   10CHTO  H101 4035   5.369   8.134   0.985
   10CHTO   C66 4036   5.163   8.379   0.884
   10CHTO  H123 4037   5.061   8.375   0.846
   10CHTO   N12 4038   5.157   8.459   1.009
   10CHTO  H110 4039   5.186   8.400   1.094
   10CHTO  H111 4040   5.058   8.501   1.023
   10CHTO   C69 4041   5.247   8.450   0.774
   10CHTO  H126 4042   5.352   8.464   0.808
   10CHTO   O41 4043   5.245   8.363   0.642
   10CHTO   C64 4044   5.291   8.219   0.662
   10CHTO  H121 4045   5.398   8.219   0.695
   10CHTO   C71 4046   5.285   8.144   0.527
   10CHTO   O47 4047   5.151   8.139   0.475
   10CHTO  H104 4048   5.152   8.094   0.393
   10CHTO   O34 4049   5.186   8.592   0.739
   10CHTO   C49 4050   5.246   8.713   0.668
   10CHTO   H91 4051   5.338   8.680   0.619
   10CHTO   C47 4052   5.277   8.822   0.773
   10CHTO   H89 4053   5.329   8.904   0.719
   10CHTO   O33 4054   5.368   8.767   0.870
   10CHTO   H70 4055   5.326   8.699   0.919
   10CHTO   C45 4056   5.138   8.876   0.835
   10CHTO   H87 4057   5.083   8.789   0.874
   10CHTO    N8 4058   5.157   8.973   0.946
   10CHTO   H75 4059   5.123   8.930   1.039
   10CHTO   H76 4060   5.261   9.001   0.956
   10CHTO   C43 4061   5.045   8.935   0.717
   10CHTO   H85 4062   4.949   8.957   0.764
   10CHTO   O29 4063   5.032   8.838   0.611
   10CHTO   C50 4064   5.148   8.770   0.560
   10CHTO   H92 4065   5.112   8.684   0.502
   10CHTO   C54 4066   5.225   8.854   0.455
   10CHTO   O36 4067   5.143   8.889   0.344
   10CHTO   H72 4068   5.193   8.941   0.283
   10CHTO   O27 4069   5.093   9.061   0.666
   10CHTO   C37 4070   5.096   9.158   0.560
   10CHTO   H79 4071   5.166   9.126   0.481
   10CHTO   C38 4072   4.958   9.178   0.493
   10CHTO   H80 4073   4.886   9.214   0.569
   10CHTO   O31 4074   4.913   9.050   0.444
   10CHTO   H68 4075   4.892   8.994   0.516
   10CHTO   C39 4076   4.967   9.282   0.375
   10CHTO   H81 4077   5.027   9.235   0.296
   10CHTO    N7 4078   4.835   9.316   0.313
   10CHTO   H73 4079   4.849   9.386   0.232
   10CHTO   H74 4080   4.787   9.227   0.276
   10CHTO   C40 4081   5.044   9.413   0.419
   10CHTO   H82 4082   4.977   9.485   0.468
   10CHTO   O26 4083   5.161   9.385   0.498
   10CHTO   C41 4084   5.142   9.296   0.612
   10CHTO   H83 4085   5.066   9.338   0.680
   10CHTO   C52 4086   5.275   9.288   0.690
   10CHTO   O35 4087   5.313   9.416   0.741
   10CHTO   H71 4088   5.396   9.409   0.785
   10CHTO   O28 4089   5.106   9.473   0.304
   10CHTO   C42 4090   5.087   9.612   0.262
   10CHTO   H84 4091   4.996   9.645   0.312
   10CHTO   C44 4092   5.062   9.628   0.109
   10CHTO   H86 4093   5.143   9.578   0.055
   10CHTO   O32 4094   4.941   9.558   0.077
   10CHTO   H69 4095   4.867   9.599   0.118
   10CHTO   C48 4096   5.059   9.779   0.061
   10CHTO   H90 4097   4.968   9.824   0.100
   10CHTO    N9 4098   5.050   9.791   5.545
   10CHTO   H77 4099   5.045   9.895   5.516
   10CHTO   H78 4100   5.136   9.743   5.499
   10CHTO   C51 4101   5.182   9.857   0.120
   10CHTO   H93 4102   5.274   9.816   0.078
   10CHTO   O30 4103   5.179   9.845   0.263
   10CHTO   C46 4104   5.203   9.706   0.310
   10CHTO   H88 4105   5.297   9.671   0.269
   10CHTO   C53 4106   5.215   9.711   0.465
   10CHTO   O72 4107   5.097   9.764   0.527
   10CHTO  H199 4108   5.025   9.704   0.516
   10CHTO   O22 4109   5.173   9.999   0.097
   10CHTO   C31 4110   5.293   0.086   0.090
   10CHTO   H59 4111   5.254   0.190   0.098
   10CHTO   C29 4112   5.395   0.068   0.204
   10CHTO   H57 4113   5.434   9.965   0.200
   10CHTO   O21 4114   5.326   0.082   0.330
   10CHTO   H37 4115   5.384   0.060   0.401
   10CHTO   C27 4116   5.516   0.169   0.191
   10CHTO   H55 4117   5.477   0.271   0.204
   10CHTO    N5 4118   5.622   0.146   0.292
   10CHTO   H43 4119   5.698   0.222   0.285
   10CHTO   H44 4120   5.666   0.048   0.279
   10CHTO   C25 4121   5.575   0.162   0.045
   10CHTO   H53 4122   5.623   0.064   0.030
   10CHTO   O17 4123   5.470   0.177   5.579
   10CHTO   C32 4124   5.366   0.079   5.586
   10CHTO   H60 4125   5.409   9.979   5.575
   10CHTO   C36 4126   5.269   0.100   5.467
   10CHTO   O25 4127   5.207   0.229   5.471
   10CHTO   H40 4128   5.151   0.239   5.397
   10CHTO   O15 4129   5.682   0.276   0.022
   10CHTO   C19 4130   5.702   0.420   0.019
   10CHTO   H47 4131   5.711   0.444   5.545
   10CHTO   C20 4132   5.585   0.504   0.079
   10CHTO   H48 4133   5.565   0.477   0.184
   10CHTO   O19 4134   5.467   0.473   0.002
   10CHTO   H35 4135   5.440   0.384   0.017
   10CHTO   C21 4136   5.613   0.660   0.074
   10CHTO   H49 4137   5.609   0.692   5.604
   10CHTO    N4 4138   5.510   0.741   0.145
   10CHTO   H41 4139   5.553   0.794   0.229
   10CHTO   H42 4140   5.429   0.679   0.180
   10CHTO   C22 4141   5.758   0.692   0.121
   10CHTO   H50 4142   5.763   0.684   0.230
   10CHTO   O14 4143   5.855   0.606   0.060
   10CHTO   C23 4144   5.835   0.466   0.085
   10CHTO   H51 4145   5.834   0.452   0.194
   10CHTO   C34 4146   5.957   0.388   0.033
   10CHTO   O23 4147   5.979   0.407   5.526
   10CHTO   H38 4148   6.010   0.494   5.511
   10CHTO   O16 4149   5.795   0.824   0.077
   10CHTO   C24 4150   5.916   0.890   0.155
   10CHTO   H52 4151   5.974   0.816   0.210
   10CHTO   C26 4152   5.861   0.996   0.253
   10CHTO   H54 4153   5.793   1.064   0.196
   10CHTO   O20 4154   5.783   0.928   0.353
   10CHTO   H36 4155   5.740   0.990   0.408
   10CHTO   C30 4156   5.976   1.081   0.316
   10CHTO   H58 4157   6.036   1.019   0.384
   10CHTO    N6 4158   5.922   1.192   0.399
   10CHTO   H45 4159   6.003   1.250   0.441
   10CHTO   H46 4160   5.861   1.153   0.478
   10CHTO   C33 4161   6.075   1.132   0.206
   10CHTO   H61 4162   6.023   1.205   0.141
   10CHTO   O18 4163   6.118   1.022   0.124
   10CHTO   C28 4164   6.012   0.956   0.053
   10CHTO   H56 4165   5.956   1.028   5.627
   10CHTO   C35 4166   6.073   0.851   5.589
   10CHTO   O24 4167   6.151   0.750   0.021
   10CHTO   H39 4168   6.228   0.788   0.057
   10CHTO    O9 4169   6.187   1.202   0.262
   10CHTO   C13 4170   6.272   1.288   0.154
   10CHTO   H26 4171   6.215   1.291   0.059
   10CHTO   C11 4172   6.414   1.220   0.135
   10CHTO   H24 4173   6.397   1.120   0.093
   10CHTO    O8 4174   6.477   1.204   0.264
   10CHTO    H3 4175   6.495   1.288   0.302
   10CHTO    C9 4176   6.495   1.304   0.032
   10CHTO   H22 4177   6.439   1.296   5.572
   10CHTO    N2 4178   6.627   1.244   0.000
   10CHTO   H10 4179   6.673   1.298   5.553
   10CHTO   H11 4180   6.614   1.140   5.607
   10CHTO    C7 4181   6.497   1.458   0.075
   10CHTO   H20 4182   6.440   1.507   5.626
   10CHTO    O4 4183   6.429   1.481   0.200
   10CHTO   C14 4184   6.291   1.441   0.200
   10CHTO   H27 4185   6.238   1.505   0.127
   10CHTO   C18 4186   6.232   1.473   0.339
   10CHTO   O13 4187   6.299   1.404   0.445
   10CHTO    H7 4188   6.282   1.312   0.439
   10CHTO    O2 4189   6.649   1.531   0.081
   10CHTO    C1 4190   6.658   1.655   0.153
   10CHTO   H14 4191   6.612   1.642   0.253
   10CHTO    C2 4192   6.588   1.778   0.081
   10CHTO   H15 4193   6.630   1.783   5.613
   10CHTO    O6 4194   6.446   1.756   0.072
   10CHTO    H1 4195   6.409   1.748   0.158
   10CHTO    C3 4196   6.619   1.915   0.159
   10CHTO   H16 4197   6.566   1.911   0.256
   10CHTO    N1 4198   6.567   2.036   0.087
   10CHTO    H8 4199   6.613   2.043   5.623
   10CHTO    H9 4200   6.460   2.030   0.076
   10CHTO    C4 4201   6.771   1.927   0.195
   10CHTO   H17 4202   6.828   1.949   0.104
   10CHTO    O1 4203   6.820   1.807   0.257
   10CHTO    C5 4204   6.808   1.687   0.178
   10CHTO   H18 4205   6.858   1.700   0.082
   10CHTO   C16 4206   6.881   1.577   0.259
   10CHTO   O11 4207   6.901   1.458   0.182
   10CHTO    H5 4208   6.947   1.394   0.233
   10CHTO    O3 4209   6.793   2.029   0.295
   10CHTO    C6 4210   6.922   2.100   0.289
   10CHTO   H19 4211   6.996   2.048   0.229
   10CHTO    C8 4212   6.899   2.242   0.229
   10CHTO   H21 4213   6.818   2.290   0.285
   10CHTO    O7 4214   6.859   2.225   0.092
   10CHTO    H2 4215   6.835   2.308   0.055
   10CHTO   C12 4216   7.027   2.333   0.244
   10CHTO   H25 4217   7.105   2.288   0.179
   10CHTO    N3 4218   7.003   2.472   0.193
   10CHTO   H12 4219   6.924   2.519   0.250
   10CHTO   H13 4220   7.094   2.530   0.199
   10CHTO   C15 4221   7.077   2.328   0.393
   10CHTO   H28 4222   7.007   2.377   0.461
   10CHTO   O10 4223   7.214   2.388   0.411
   10CHTO    H4 4224   7.211   2.479   0.392
   10CHTO    O5 4225   7.099   2.192   0.433
   10CHTO   C10 4226   6.980   2.111   0.433
   10CHTO   H23 4227   6.907   2.156   0.500
   10CHTO   C17 4228   7.022   1.976   0.493
   10CHTO   O12 4229   6.912   1.890   0.523
   10CHTO    H6 4230   6.872   1.861   0.443
   11CHTO  H203 4231   6.424   4.638   5.403
   11CHTO   O82 4232   6.513   4.658   5.425
   11CHTO  C123 4233   6.519   4.738   5.544
   11CHTO  H227 4234   6.625   4.757   5.568
   11CHTO   O77 4235   6.454   4.864   5.507
   11CHTO  C118 4236   6.462   4.965   5.609
   11CHTO  H222 4237   6.567   4.983   0.002
   11CHTO  C125 4238   6.401   5.098   5.551
   11CHTO   O84 4239   6.479   5.149   5.442
   11CHTO  H205 4240   6.562   5.179   5.475
   11CHTO  C114 4241   6.385   4.918   0.100
   11CHTO  H218 4242   6.279   4.906   0.073
   11CHTO  C116 4243   6.438   4.780   0.150
   11CHTO  H220 4244   6.540   4.794   0.193
   11CHTO   O79 4245   6.354   4.736   0.259
   11CHTO  H201 4246   6.388   4.657   0.296
   11CHTO  C120 4247   6.444   4.674   0.033
   11CHTO  H224 4248   6.338   4.651   0.005
   11CHTO   N21 4249   6.506   4.546   0.076
   11CHTO  H211 4250   6.581   4.563   0.152
   11CHTO  H212 4251   6.548   4.493   5.626
   11CHTO   O75 4252   6.402   5.024   0.195
   11CHTO  C112 4253   6.275   5.060   0.301
   11CHTO  H216 4254   6.316   5.065   0.404
   11CHTO   O73 4255   6.174   4.957   0.290
   11CHTO  C113 4256   6.070   4.970   0.388
   11CHTO  H217 4257   6.116   4.969   0.490
   11CHTO  C124 4258   5.978   4.847   0.378
   11CHTO   O83 4259   6.044   4.724   0.408
   11CHTO  H204 4260   6.068   4.721   0.499
   11CHTO  C109 4261   5.991   5.102   0.368
   11CHTO  H213 4262   5.934   5.091   0.274
   11CHTO  C110 4263   6.088   5.224   0.360
   11CHTO  H214 4264   6.124   5.246   0.461
   11CHTO   O78 4265   6.013   5.339   0.317
   11CHTO  H200 4266   5.951   5.364   0.383
   11CHTO  C111 4267   6.209   5.198   0.265
   11CHTO  H215 4268   6.172   5.192   0.162
   11CHTO   N19 4269   6.311   5.306   0.269
   11CHTO  H207 4270   6.392   5.283   0.201
   11CHTO  H208 4271   6.266   5.400   0.240
   11CHTO   O74 4272   5.898   5.121   0.479
   11CHTO  C115 4273   5.741   5.130   0.444
   11CHTO  H219 4274   5.721   5.103   0.340
   11CHTO   O76 4275   5.657   5.030   0.530
   11CHTO  C122 4276   5.688   5.042   0.670
   11CHTO  H226 4277   5.782   4.990   0.687
   11CHTO  C126 4278   5.580   4.961   0.750
   11CHTO   O85 4279   5.608   4.956   0.891
   11CHTO  H206 4280   5.541   4.907   0.934
   11CHTO  C121 4281   5.698   5.193   0.719
   11CHTO  H225 4282   5.644   5.203   0.815
   11CHTO   O81 4283   5.836   5.225   0.744
   11CHTO  H202 4284   5.843   5.309   0.785
   11CHTO  C119 4285   5.634   5.292   0.616
   11CHTO  H223 4286   5.530   5.258   0.611
   11CHTO  C117 4287   5.696   5.279   0.472
   11CHTO  H221 4288   5.786   5.337   0.454
   11CHTO   N20 4289   5.598   5.330   0.369
   11CHTO  H209 4290   5.510   5.267   0.368
   11CHTO  H210 4291   5.645   5.332   0.272
   11CHTO   O80 4292   5.614   5.445   0.670
   11CHTO  C103 4293   5.737   5.524   0.740
   11CHTO  H190 4294   5.788   5.459   0.811
   11CHTO  C101 4295   5.844   5.590   0.645
   11CHTO  H188 4296   5.792   5.647   0.568
   11CHTO   O68 4297   5.926   5.481   0.576
   11CHTO  H168 4298   5.975   5.433   0.640
   11CHTO   C99 4299   5.940   5.690   0.726
   11CHTO  H186 4300   6.001   5.630   0.797
   11CHTO   N17 4301   6.037   5.765   0.639
   11CHTO  H174 4302   5.983   5.833   0.574
   11CHTO  H175 4303   6.108   5.818   0.701
   11CHTO   C97 4304   5.855   5.786   0.814
   11CHTO  H184 4305   5.802   5.857   0.748
   11CHTO   O64 4306   5.764   5.712   0.898
   11CHTO  C104 4307   5.666   5.637   0.824
   11CHTO  H191 4308   5.610   5.702   0.756
   11CHTO  C108 4309   5.563   5.579   0.922
   11CHTO   O71 4310   5.490   5.683   0.989
   11CHTO  H171 4311   5.434   5.727   0.928
   11CHTO   O62 4312   5.937   5.858   0.909
   11CHTO   C91 4313   5.891   5.987   0.952
   11CHTO  H178 4314   5.784   5.995   0.931
   11CHTO   C92 4315   5.961   6.097   0.865
   11CHTO  H179 4316   6.069   6.076   0.863
   11CHTO   O66 4317   5.917   6.083   0.728
   11CHTO  H166 4318   5.825   6.098   0.722
   11CHTO   C93 4319   5.935   6.244   0.917
   11CHTO  H180 4320   5.829   6.266   0.900
   11CHTO   N16 4321   6.012   6.348   0.843
   11CHTO  H172 4322   6.118   6.328   0.852
   11CHTO  H173 4323   5.982   6.349   0.740
   11CHTO   C94 4324   5.963   6.249   1.072
   11CHTO  H181 4325   6.066   6.224   1.096
   11CHTO   O61 4326   5.880   6.153   1.138
   11CHTO   C95 4327   5.913   6.017   1.106
   11CHTO  H182 4328   6.017   5.998   1.132
   11CHTO  C106 4329   5.824   5.925   1.197
   11CHTO   O69 4330   5.864   5.787   1.188
   11CHTO  H169 4331   5.809   5.735   1.243
   11CHTO   O63 4332   5.924   6.394   1.133
   11CHTO   C96 4333   6.017   6.442   1.252
   11CHTO  H183 4334   6.060   6.354   1.300
   11CHTO   C98 4335   5.935   6.520   1.359
   11CHTO  H185 4336   5.864   6.587   1.308
   11CHTO   O67 4337   5.855   6.424   1.429
   11CHTO  H167 4338   5.798   6.466   1.491
   11CHTO  C102 4339   6.026   6.606   1.461
   11CHTO  H189 4340   6.084   6.533   1.519
   11CHTO   N18 4341   5.951   6.687   1.560
   11CHTO  H176 4342   5.887   6.757   1.509
   11CHTO  H177 4343   5.892   6.623   1.623
   11CHTO  C105 4344   6.127   6.690   1.378
   11CHTO  H192 4345   6.071   6.761   1.317
   11CHTO   O65 4346   6.205   6.607   1.292
   11CHTO  C100 4347   6.135   6.530   1.194
   11CHTO  H187 4348   6.092   6.600   1.120
   11CHTO  C107 4349   6.241   6.445   1.121
   11CHTO   O70 4350   6.311   6.355   1.208
   11CHTO  H170 4351   6.252   6.288   1.238
   11CHTO   O57 4352   6.229   6.768   1.483
   11CHTO   C85 4353   6.332   6.860   1.445
   11CHTO  H157 4354   6.366   6.903   1.542
   11CHTO   C83 4355   6.276   6.983   1.365
   11CHTO  H155 4356   6.196   7.028   1.424
   11CHTO   O56 4357   6.216   6.941   1.240
   11CHTO  H135 4358   6.143   6.884   1.257
   11CHTO   C81 4359   6.390   7.087   1.346
   11CHTO  H153 4360   6.428   7.114   1.445
   11CHTO   N14 4361   6.345   7.216   1.288
   11CHTO  H141 4362   6.243   7.210   1.255
   11CHTO  H142 4363   6.353   7.295   1.360
   11CHTO   C79 4364   6.509   7.022   1.265
   11CHTO  H151 4365   6.591   7.093   1.267
   11CHTO   O52 4366   6.557   6.901   1.333
   11CHTO   C86 4367   6.454   6.801   1.361
   11CHTO  H158 4368   6.422   6.764   1.261
   11CHTO   C90 4369   6.524   6.681   1.431
   11CHTO   O60 4370   6.439   6.568   1.451
   11CHTO  H138 4371   6.371   6.589   1.512
   11CHTO   O50 4372   6.478   6.991   1.128
   11CHTO   C73 4373   6.530   6.996   0.995
   11CHTO  H145 4374   6.564   7.098   0.972
   11CHTO   C74 4375   6.417   6.959   0.893
   11CHTO  H146 4376   6.333   7.029   0.910
   11CHTO   O54 4377   6.465   6.984   0.760
   11CHTO  H133 4378   6.479   7.075   0.746
   11CHTO   C75 4379   6.374   6.809   0.916
   11CHTO  H147 4380   6.336   6.799   1.019
   11CHTO   N13 4381   6.263   6.763   0.828
   11CHTO  H139 4382   6.292   6.772   0.724
   11CHTO  H140 4383   6.175   6.824   0.845
   11CHTO   C76 4384   6.503   6.716   0.904
   11CHTO  H148 4385   6.540   6.721   0.801
   11CHTO   O49 4386   6.607   6.762   0.996
   11CHTO   C77 4387   6.649   6.897   0.975
   11CHTO  H149 4388   6.688   6.907   0.874
   11CHTO   C88 4389   6.769   6.924   1.068
   11CHTO   O58 4390   6.828   7.058   1.046
   11CHTO  H136 4391   6.868   7.061   0.961
   11CHTO   O51 4392   6.472   6.570   0.949
   11CHTO   C78 4393   6.564   6.458   0.886
   11CHTO  H150 4394   6.644   6.502   0.822
   11CHTO   C80 4395   6.478   6.363   0.801
   11CHTO  H152 4396   6.391   6.329   0.862
   11CHTO   O55 4397   6.426   6.439   0.691
   11CHTO  H134 4398   6.366   6.388   0.640
   11CHTO   C84 4399   6.560   6.236   0.752
   11CHTO  H156 4400   6.638   6.271   0.685
   11CHTO   N15 4401   6.475   6.138   0.676
   11CHTO  H143 4402   6.374   6.172   0.668
   11CHTO  H144 4403   6.515   6.124   0.577
   11CHTO   C87 4404   6.625   6.169   0.875
   11CHTO  H159 4405   6.546   6.133   0.940
   11CHTO   O53 4406   6.712   6.276   0.950
   11CHTO   C82 4407   6.633   6.383   1.002
   11CHTO  H154 4408   6.558   6.344   1.072
   11CHTO   C89 4409   6.722   6.481   1.081
   11CHTO   O59 4410   6.783   6.422   1.195
   11CHTO  H137 4411   6.839   6.485   1.237
   11CHTO   O45 4412   6.721   6.036   0.838
   11CHTO   C67 4413   6.832   6.053   0.748
   11CHTO  H124 4414   6.798   6.110   0.661
   11CHTO   C65 4415   6.951   6.131   0.816
   11CHTO  H122 4416   6.926   6.139   0.922
   11CHTO   O44 4417   6.953   6.262   0.757
   11CHTO  H102 4418   7.013   6.317   0.803
   11CHTO   C63 4419   7.086   6.051   0.813
   11CHTO  H120 4420   7.075   5.961   0.874
   11CHTO   N11 4421   7.205   6.118   0.876
   11CHTO  H108 4422   7.181   6.219   0.901
   11CHTO  H109 4423   7.235   6.065   0.964
   11CHTO   C61 4424   7.112   6.001   0.666
   11CHTO  H118 4425   7.198   5.932   0.670
   11CHTO   O40 4426   7.000   5.926   0.611
   11CHTO   C68 4427   6.879   5.913   0.691
   11CHTO  H125 4428   6.900   5.842   0.775
   11CHTO   C72 4429   6.771   5.846   0.602
   11CHTO   O48 4430   6.654   5.807   0.674
   11CHTO  H105 4431   6.593   5.766   0.616
   11CHTO   O38 4432   7.138   6.111   0.577
   11CHTO   C55 4433   7.207   6.079   0.454
   11CHTO  H112 4434   7.200   5.970   0.434
   11CHTO   C56 4435   7.358   6.127   0.462
   11CHTO  H113 4436   7.356   6.231   0.498
   11CHTO   O42 4437   7.427   6.052   0.563
   11CHTO  H100 4438   7.391   6.070   0.648
   11CHTO   C57 4439   7.431   6.117   0.322
   11CHTO  H114 4440   7.450   6.012   0.303
   11CHTO   N10 4441   7.563   6.186   0.322
   11CHTO  H106 4442   7.640   6.117   0.353
   11CHTO  H107 4443   7.587   6.222   0.223
   11CHTO   C58 4444   7.339   6.171   0.208
   11CHTO  H115 4445   7.331   6.282   0.217
   11CHTO   O37 4446   7.207   6.113   0.215
   11CHTO   C59 4447   7.137   6.149   0.335
   11CHTO  H116 4448   7.138   6.257   0.347
   11CHTO   C70 4449   6.989   6.107   0.323
   11CHTO   O46 4450   6.969   5.966   0.311
   11CHTO  H103 4451   6.877   5.948   0.304
   11CHTO   O39 4452   7.404   6.132   0.062
   11CHTO   C60 4453   7.320   6.155   5.581
   11CHTO  H117 4454   7.228   6.098   5.593
   11CHTO   C62 4455   7.280   6.305   5.563
   11CHTO  H119 4456   7.219   6.332   0.018
   11CHTO   O43 4457   7.399   6.386   5.561
   11CHTO  H101 4458   7.376   6.477   5.558
   11CHTO   C66 4459   7.189   6.320   5.431
   11CHTO  H123 4460   7.102   6.256   5.441
   11CHTO   N12 4461   7.137   6.458   5.414
   11CHTO  H110 4462   7.077   6.485   5.500
   11CHTO  H111 4463   7.079   6.464   5.323
   11CHTO   C69 4464   7.270   6.271   5.308
   11CHTO  H126 4465   7.363   6.329   5.299
   11CHTO   O41 4466   7.305   6.120   5.330
   11CHTO   C64 4467   7.392   6.101   5.454
   11CHTO  H121 4468   7.488   6.156   5.442
   11CHTO   C71 4469   7.428   5.950   5.469
   11CHTO   O47 4470   7.312   5.868   5.487
   11CHTO  H104 4471   7.273   5.885   5.570
   11CHTO   O34 4472   7.189   6.286   5.174
   11CHTO   C49 4473   7.176   6.218   5.043
   11CHTO   H91 4474   7.277   6.196   5.007
   11CHTO   C47 4475   7.104   6.314   4.945
   11CHTO   H89 4476   7.109   6.262   4.846
   11CHTO   O33 4477   7.178   6.438   4.933
   11CHTO   H70 4478   7.142   6.490   4.864
   11CHTO   C45 4479   6.951   6.342   4.991
   11CHTO   H87 4480   6.950   6.434   5.052
   11CHTO    N8 4481   6.869   6.367   4.869
   11CHTO   H75 4482   6.866   6.278   4.808
   11CHTO   H76 4483   6.910   6.449   4.813
   11CHTO   C43 4484   6.898   6.225   5.090
   11CHTO   H85 4485   6.936   6.252   5.188
   11CHTO   O29 4486   6.949   6.098   5.046
   11CHTO   C50 4487   7.092   6.086   5.052
   11CHTO   H92 4488   7.117   6.039   5.148
   11CHTO   C54 4489   7.139   5.980   4.949
   11CHTO   O36 4490   7.093   6.008   4.817
   11CHTO   H72 4491   7.126   5.944   4.758
   11CHTO   O27 4492   6.755   6.223   5.106
   11CHTO   C37 4493   6.681   6.146   5.201
   11CHTO   H79 4494   6.748   6.081   5.259
   11CHTO   C38 4495   6.608   6.240   5.302
   11CHTO   H80 4496   6.548   6.313   5.245
   11CHTO   O31 4497   6.709   6.311   5.376
   11CHTO   H68 4498   6.669   6.375   5.431
   11CHTO   C39 4499   6.512   6.159   5.398
   11CHTO   H81 4500   6.575   6.099   5.465
   11CHTO    N7 4501   6.427   6.246   5.486
   11CHTO   H73 4502   6.490   6.307   5.550
   11CHTO   H74 4503   6.364   6.309   5.426
   11CHTO   C40 4504   6.423   6.057   5.317
   11CHTO   H82 4505   6.345   6.111   5.262
   11CHTO   O26 4506   6.505   5.978   5.229
   11CHTO   C41 4507   6.575   6.057   5.129
   11CHTO   H83 4508   6.504   6.121   5.076
   11CHTO   C52 4509   6.637   5.957   5.029
   11CHTO   O35 4510   6.692   6.022   4.907
   11CHTO   H71 4511   6.766   6.074   4.930
   11CHTO   O28 4512   6.360   5.961   5.403
   11CHTO   C42 4513   6.264   5.863   5.353
   11CHTO   H84 4514   6.290   5.848   5.248
   11CHTO   C44 4515   6.114   5.907   5.354
   11CHTO   H86 4516   6.086   5.932   5.457
   11CHTO   O32 4517   6.103   6.027   5.275
   11CHTO   H69 4518   6.148   6.098   5.316
   11CHTO   C48 4519   6.017   5.793   5.303
   11CHTO   H90 4520   6.037   5.775   5.198
   11CHTO    N9 4521   5.872   5.831   5.313
   11CHTO   H77 4522   5.853   5.917   5.250
   11CHTO   H78 4523   5.846   5.853   5.415
   11CHTO   C51 4524   6.049   5.660   5.382
   11CHTO   H93 4525   6.026   5.678   5.487
   11CHTO   O30 4526   6.186   5.626   5.362
   11CHTO   C46 4527   6.281   5.725   5.423
   11CHTO   H88 4528   6.258   5.735   5.529
   11CHTO   C53 4529   6.425   5.671   5.406
   11CHTO   O72 4530   6.442   5.547   5.477
   11CHTO  H199 4531   6.529   5.516   5.464
   11CHTO   O22 4532   5.976   5.546   5.333
   11CHTO   C31 4533   5.962   5.430   5.423
   11CHTO   H59 4534   6.033   5.447   5.507
   11CHTO   C29 4535   5.821   5.415   5.485
   11CHTO   H57 4536   5.751   5.391   5.404
   11CHTO   O21 4537   5.780   5.541   5.540
   11CHTO   H37 4538   5.833   5.565   5.613
   11CHTO   C27 4539   5.819   5.298   5.591
   11CHTO   H55 4540   5.884   5.325   0.042
   11CHTO    N5 4541   5.682   5.271   0.010
   11CHTO   H43 4542   5.678   5.290   0.116
   11CHTO   H44 4543   5.650   5.170   5.623
   11CHTO   C25 4544   5.881   5.168   5.527
   11CHTO   H53 4545   5.812   5.132   5.449
   11CHTO   O17 4546   6.009   5.196   5.463
   11CHTO   C32 4547   6.003   5.294   5.359
   11CHTO   H60 4548   5.928   5.266   5.284
   11CHTO   C36 4549   6.142   5.297   5.291
   11CHTO   O25 4550   6.141   5.374   5.171
   11CHTO   H40 4551   6.226   5.373   5.132
   11CHTO   O15 4552   5.905   5.052   0.004
   11CHTO   C19 4553   5.864   4.914   5.614
   11CHTO   H47 4554   5.927   4.856   0.051
   11CHTO   C20 4555   5.714   4.886   0.014
   11CHTO   H48 4556   5.647   4.960   5.600
   11CHTO   O19 4557   5.699   4.902   0.156
   11CHTO   H35 4558   5.748   4.837   0.202
   11CHTO   C21 4559   5.666   4.742   5.600
   11CHTO   H49 4560   5.721   4.667   0.022
   11CHTO    N4 4561   5.521   4.719   5.625
   11CHTO   H41 4562   5.468   4.700   5.533
   11CHTO   H42 4563   5.507   4.635   0.058
   11CHTO   C22 4564   5.707   4.729   5.451
   11CHTO   H50 4565   5.662   4.813   5.398
   11CHTO   O14 4566   5.850   4.735   5.443
   11CHTO   C23 4567   5.904   4.864   5.471
   11CHTO   H51 4568   5.867   4.932   5.392
   11CHTO   C34 4569   6.057   4.856   5.457
   11CHTO   O23 4570   6.094   4.830   5.321
   11CHTO   H38 4571   6.188   4.827   5.315
   11CHTO   O16 4572   5.671   4.604   5.388
   11CHTO   C24 4573   5.638   4.627   5.229
   11CHTO   H52 4574   5.654   4.731   5.199
   11CHTO   C26 4575   5.492   4.589   5.200
   11CHTO   H54 4576   5.477   4.482   5.230
   11CHTO   O20 4577   5.406   4.669   5.283
   11CHTO   H36 4578   5.414   4.760   5.261
   11CHTO   C30 4579   5.458   4.605   5.049
   11CHTO   H58 4580   5.453   4.712   5.025
   11CHTO    N6 4581   5.323   4.551   5.016
   11CHTO   H45 4582   5.302   4.565   4.911
   11CHTO   H46 4583   5.248   4.602   5.074
   11CHTO   C33 4584   5.569   4.542   4.957
   11CHTO   H61 4585   5.561   4.432   4.961
   11CHTO   O18 4586   5.700   4.578   5.005
   11CHTO   C28 4587   5.731   4.541   5.140
   11CHTO   H56 4588   5.710   4.435   5.158
   11CHTO   C35 4589   5.880   4.571   5.159
   11CHTO   O24 4590   5.935   4.506   5.274
   11CHTO   H39 4591   6.026   4.529   5.282
   11CHTO    O9 4592   5.553   4.577   4.818
   11CHTO   C13 4593   5.578   4.736   4.786
   11CHTO   H26 4594   5.584   4.792   4.881
   11CHTO   C11 4595   5.457   4.786   4.697
   11CHTO   H24 4596   5.363   4.768   4.752
   11CHTO    O8 4597   5.452   4.709   4.575
   11CHTO    H3 4598   5.432   4.620   4.594
   11CHTO    C9 4599   5.473   4.940   4.675
   11CHTO   H22 4600   5.462   4.984   4.775
   11CHTO    N2 4601   5.360   5.000   4.600
   11CHTO   H10 4602   5.397   5.064   4.521
   11CHTO   H11 4603   5.295   4.924   4.559
   11CHTO    C7 4604   5.620   4.973   4.625
   11CHTO   H20 4605   5.664   5.026   4.712
   11CHTO    O4 4606   5.698   4.854   4.598
   11CHTO   C14 4607   5.717   4.768   4.711
   11CHTO   H27 4608   5.785   4.818   4.782
   11CHTO   C18 4609   5.791   4.643   4.657
   11CHTO   O13 4610   5.845   4.562   4.761
   11CHTO    H7 4611   5.776   4.522   4.810
   11CHTO    O2 4612   5.628   5.069   4.497
   11CHTO    C1 4613   5.756   5.134   4.478
   11CHTO   H14 4614   5.838   5.066   4.512
   11CHTO    C2 4615   5.768   5.270   4.557
   11CHTO   H15 4616   5.675   5.324   4.534
   11CHTO    O6 4617   5.773   5.244   4.698
   11CHTO    H1 4618   5.849   5.194   4.720
   11CHTO    C3 4619   5.895   5.355   4.510
   11CHTO   H16 4620   5.986   5.306   4.548
   11CHTO    N1 4621   5.894   5.494   4.567
   11CHTO    H8 4622   5.806   5.547   4.533
   11CHTO    H9 4623   5.983   5.548   4.537
   11CHTO    C4 4624   5.909   5.355   4.353
   11CHTO   H17 4625   5.830   5.417   4.310
   11CHTO    O1 4626   5.902   5.221   4.300
   11CHTO    C5 4627   5.776   5.157   4.326
   11CHTO   H18 4628   5.695   5.223   4.292
   11CHTO   C16 4629   5.768   5.024   4.247
   11CHTO   O11 4630   5.870   4.932   4.284
   11CHTO    H5 4631   5.861   4.853   4.234
   11CHTO    O3 4632   6.038   5.408   4.316
   11CHTO    C6 4633   6.065   5.437   4.175
   11CHTO   H19 4634   6.010   5.372   4.107
   11CHTO    C8 4635   6.032   5.586   4.140
   11CHTO   H21 4636   6.075   5.650   4.217
   11CHTO    O7 4637   5.888   5.601   4.143
   11CHTO    H2 4638   5.849   5.549   4.075
   11CHTO   C12 4639   6.093   5.628   4.000
   11CHTO   H25 4640   6.038   5.570   3.923
   11CHTO    N3 4641   6.071   5.774   3.970
   11CHTO   H12 4642   6.117   5.835   4.047
   11CHTO   H13 4643   5.965   5.794   3.965
   11CHTO   C15 4644   6.245   5.587   3.995
   11CHTO   H28 4645   6.304   5.645   4.066
   11CHTO   O10 4646   6.309   5.602   3.853
   11CHTO    H4 4647   6.259   5.554   3.790
   11CHTO    O5 4648   6.259   5.447   4.021
   11CHTO   C10 4649   6.216   5.408   4.152
   11CHTO   H23 4650   6.274   5.465   4.225
   11CHTO   C17 4651   6.249   5.260   4.174
   11CHTO   O12 4652   6.391   5.238   4.175
   11CHTO    H6 4653   6.426   5.250   4.089
   12CHTO  H203 4654   5.254   2.383   5.169
   12CHTO   O82 4655   5.187   2.318   5.169
   12CHTO  C123 4656   5.242   2.188   5.194
   12CHTO  H227 4657   5.159   2.115   5.197
   12CHTO   O77 4658   5.325   2.163   5.076
   12CHTO  C118 4659   5.386   2.033   5.071
   12CHTO  H222 4660   5.308   1.956   5.074
   12CHTO  C125 4661   5.463   2.023   4.934
   12CHTO   O84 4662   5.563   2.125   4.919
   12CHTO  H205 4663   5.633   2.110   4.980
   12CHTO  C114 4664   5.481   2.015   5.192
   12CHTO  H218 4665   5.560   2.090   5.185
   12CHTO  C116 4666   5.408   2.042   5.327
   12CHTO  H220 4667   5.336   1.960   5.348
   12CHTO   O79 4668   5.506   2.037   5.433
   12CHTO  H201 4669   5.569   2.106   5.423
   12CHTO  C120 4670   5.331   2.181   5.324
   12CHTO  H224 4671   5.408   2.261   5.321
   12CHTO   N21 4672   5.250   2.200   5.448
   12CHTO  H211 4673   5.164   2.261   5.428
   12CHTO  H212 4674   5.311   2.245   5.525
   12CHTO   O75 4675   5.541   1.884   5.177
   12CHTO  C112 4676   5.454   1.751   5.236
   12CHTO  H216 4677   5.347   1.773   5.228
   12CHTO   O73 4678   5.494   1.729   5.373
   12CHTO  C113 4679   5.427   1.620   5.438
   12CHTO  H217 4680   5.317   1.637   5.432
   12CHTO  C124 4681   5.465   1.620   5.587
   12CHTO   O83 4682   5.418   1.736   0.022
   12CHTO  H204 4683   5.325   1.734   0.029
   12CHTO  C109 4684   5.462   1.486   5.368
   12CHTO  H213 4685   5.571   1.473   5.378
   12CHTO  C110 4686   5.423   1.496   5.217
   12CHTO  H214 4687   5.314   1.502   5.210
   12CHTO   O78 4688   5.462   1.375   5.150
   12CHTO  H200 4689   5.556   1.364   5.154
   12CHTO  C111 4690   5.487   1.622   5.151
   12CHTO  H215 4691   5.597   1.609   5.151
   12CHTO   N19 4692   5.447   1.643   5.009
   12CHTO  H207 4693   5.378   1.567   4.977
   12CHTO  H208 4694   5.534   1.642   4.945
   12CHTO   O74 4695   5.395   1.372   5.432
   12CHTO  C115 4696   5.498   1.266   5.506
   12CHTO  H219 4697   5.589   1.316   5.539
   12CHTO   O76 4698   5.437   1.207   0.002
   12CHTO  C122 4699   5.315   1.135   5.614
   12CHTO  H226 4700   5.236   1.208   5.596
   12CHTO  C126 4701   5.277   1.063   0.115
   12CHTO   O85 4702   5.254   1.154   0.223
   12CHTO  H206 4703   5.175   1.203   0.208
   12CHTO  C121 4704   5.324   1.030   5.494
   12CHTO  H225 4705   5.288   0.932   5.532
   12CHTO   O81 4706   5.236   1.071   5.389
   12CHTO  H202 4707   5.147   1.071   5.418
   12CHTO  C119 4708   5.469   1.013   5.440
   12CHTO  H223 4709   5.526   0.969   5.523
   12CHTO  C117 4710   5.535   1.152   5.403
   12CHTO  H221 4711   5.503   1.191   5.307
   12CHTO   N20 4712   5.684   1.137   5.389
   12CHTO  H209 4713   5.728   1.109   5.484
   12CHTO  H210 4714   5.707   1.062   5.314
   12CHTO   O80 4715   5.486   0.898   5.322
   12CHTO  C103 4716   5.454   0.745   5.353
   12CHTO  H190 4717   5.458   0.725   5.460
   12CHTO  C101 4718   5.315   0.692   5.298
   12CHTO  H188 4719   5.306   0.722   5.193
   12CHTO   O68 4720   5.200   0.759   5.377
   12CHTO  H168 4721   5.202   0.732   5.467
   12CHTO   C99 4722   5.305   0.532   5.305
   12CHTO  H186 4723   5.306   0.501   5.412
   12CHTO   N17 4724   5.179   0.477   5.244
   12CHTO  H174 4725   5.093   0.521   5.293
   12CHTO  H175 4726   5.178   0.497   5.138
   12CHTO   C97 4727   5.432   0.468   5.242
   12CHTO  H184 4728   5.432   0.490   5.134
   12CHTO   O64 4729   5.549   0.521   5.307
   12CHTO  C104 4730   5.570   0.661   5.285
   12CHTO  H191 4731   5.573   0.684   5.178
   12CHTO  C108 4732   5.710   0.694   5.339
   12CHTO   O71 4733   5.758   0.821   5.294
   12CHTO  H171 4734   5.844   0.836   5.329
   12CHTO   O62 4735   5.440   0.325   5.265
   12CHTO   C91 4736   5.498   0.243   5.161
   12CHTO  H178 4737   5.562   0.306   5.098
   12CHTO   C92 4738   5.385   0.187   5.068
   12CHTO  H179 4739   5.307   0.142   5.132
   12CHTO   O66 4740   5.321   0.297   5.001
   12CHTO  H166 4741   5.278   0.353   5.063
   12CHTO   C93 4742   5.437   0.083   4.961
   12CHTO  H180 4743   5.490   0.140   4.884
   12CHTO   N16 4744   5.326   0.013   4.890
   12CHTO  H172 4745   5.264   0.086   4.840
   12CHTO  H173 4746   5.367   9.944   4.817
   12CHTO   C94 4747   5.536   9.978   5.024
   12CHTO  H181 4748   5.485   9.906   5.089
   12CHTO   O61 4749   5.637   0.044   5.104
   12CHTO   C95 4750   5.585   0.122   5.213
   12CHTO  H182 4751   5.524   0.059   5.277
   12CHTO  C106 4752   5.704   0.175   5.301
   12CHTO   O69 4753   5.771   0.067   5.367
   12CHTO  H169 4754   5.816   0.014   5.305
   12CHTO   O63 4755   5.612   9.901   4.902
   12CHTO   C96 4756   5.687   9.768   4.937
   12CHTO  H183 4757   5.688   9.755   5.046
   12CHTO   C98 4758   5.834   9.768   4.886
   12CHTO  H185 4759   5.834   9.789   4.777
   12CHTO   O67 4760   5.901   9.880   4.946
   12CHTO  H167 4761   5.988   9.888   4.911
   12CHTO  C102 4762   5.911   9.631   4.917
   12CHTO  H189 4763   5.940   9.637   5.023
   12CHTO   N18 4764   6.038   9.613   4.843
   12CHTO  H176 4765   6.019   9.612   4.736
   12CHTO  H177 4766   6.086   9.521   4.872
   12CHTO  C105 4767   5.814   9.509   4.902
   12CHTO  H192 4768   5.864   9.429   4.846
   12CHTO   O65 4769   5.693   9.536   4.829
   12CHTO  C100 4770   5.610   9.647   4.871
   12CHTO  H187 4771   5.562   9.685   4.779
   12CHTO  C107 4772   5.496   9.595   4.962
   12CHTO   O70 4773   5.413   9.500   4.894
   12CHTO  H170 4774   5.364   9.542   4.826
   12CHTO   O57 4775   5.791   9.459   5.052
   12CHTO   C85 4776   5.755   9.323   5.080
   12CHTO  H157 4777   5.699   9.286   4.991
   12CHTO   C83 4778   5.653   9.321   5.198
   12CHTO  H155 4779   5.563   9.374   5.165
   12CHTO   O56 4780   5.706   9.397   5.309
   12CHTO  H135 4781   5.641   9.404   5.377
   12CHTO   C81 4782   5.616   9.175   5.233
   12CHTO  H153 4783   5.579   9.126   5.142
   12CHTO   N14 4784   5.503   9.163   5.328
   12CHTO  H141 4785   5.531   9.204   5.423
   12CHTO  H142 4786   5.475   9.061   5.340
   12CHTO   C79 4787   5.745   9.098   5.280
   12CHTO  H151 4788   5.716   8.994   5.298
   12CHTO   O52 4789   5.842   9.096   5.171
   12CHTO   C86 4790   5.878   9.227   5.116
   12CHTO  H158 4791   5.940   9.273   5.196
   12CHTO   C90 4792   5.972   9.206   4.996
   12CHTO   O60 4793   5.909   9.129   4.893
   12CHTO  H138 4794   5.969   9.117   4.821
   12CHTO   O50 4795   5.806   9.149   5.400
   12CHTO   C73 4796   5.806   9.111   5.538
   12CHTO  H145 4797   5.713   9.057   5.562
   12CHTO   C74 4798   5.815   9.237   5.630
   12CHTO  H146 4799   5.732   9.304   5.602
   12CHTO   O54 4800   5.789   9.195   0.131
   12CHTO  H133 4801   5.789   9.269   0.189
   12CHTO   C75 4802   5.956   9.307   5.611
   12CHTO  H147 4803   5.964   9.340   5.507
   12CHTO   N13 4804   5.977   9.428   0.061
   12CHTO  H139 4805   5.890   9.449   0.122
   12CHTO  H140 4806   5.997   9.514   5.632
   12CHTO   C76 4807   6.072   9.199   0.001
   12CHTO  H148 4808   6.066   9.166   0.105
   12CHTO   O49 4809   6.051   9.085   5.546
   12CHTO   C77 4810   5.927   9.017   5.569
   12CHTO  H149 4811   5.920   8.984   0.039
   12CHTO   C88 4812   5.928   8.890   5.484
   12CHTO   O58 4813   6.037   8.801   5.523
   12CHTO  H136 4814   6.120   8.839   5.500
   12CHTO   O51 4815   6.217   9.253   5.596
   12CHTO   C78 4816   6.330   9.140   5.620
   12CHTO  H150 4817   6.284   9.038   5.622
   12CHTO   C80 4818   6.402   9.163   0.121
   12CHTO  H152 4819   6.446   9.266   0.120
   12CHTO   O55 4820   6.303   9.155   0.225
   12CHTO  H134 4821   6.246   9.229   0.222
   12CHTO   C84 4822   6.518   9.058   0.143
   12CHTO  H156 4823   6.473   8.960   0.151
   12CHTO   N15 4824   6.596   9.081   0.271
   12CHTO  H143 4825   6.557   9.165   0.324
   12CHTO  H144 4826   6.700   9.096   0.251
   12CHTO   C87 4827   6.611   9.057   0.018
   12CHTO  H159 4828   6.667   9.151   0.012
   12CHTO   O53 4829   6.524   9.036   5.522
   12CHTO   C82 4830   6.430   9.143   5.504
   12CHTO  H154 4831   6.482   9.238   5.500
   12CHTO   C89 4832   6.358   9.125   5.368
   12CHTO   O59 4833   6.448   9.138   5.258
   12CHTO  H137 4834   6.507   9.065   5.256
   12CHTO   O45 4835   6.714   8.936   0.026
   12CHTO   C67 4836   6.800   8.929   5.545
   12CHTO  H124 4837   6.789   9.018   5.482
   12CHTO   C65 4838   6.948   8.917   5.591
   12CHTO  H122 4839   6.960   8.991   0.036
   12CHTO   O44 4840   7.036   8.950   5.483
   12CHTO  H102 4841   7.032   8.884   5.416
   12CHTO   C63 4842   6.970   8.777   0.026
   12CHTO  H120 4843   6.896   8.765   0.105
   12CHTO   N11 4844   7.098   8.762   0.102
   12CHTO  H108 4845   7.149   8.673   0.072
   12CHTO  H109 4846   7.161   8.847   0.087
   12CHTO   C61 4847   6.941   8.665   5.553
   12CHTO  H118 4848   6.948   8.569   5.606
   12CHTO   O40 4849   6.804   8.676   5.505
   12CHTO   C68 4850   6.754   8.806   5.456
   12CHTO  H125 4851   6.643   8.800   5.462
   12CHTO   C72 4852   6.790   8.823   5.306
   12CHTO   O48 4853   6.730   8.940   5.249
   12CHTO  H105 4854   6.637   8.930   5.244
   12CHTO   O38 4855   7.028   8.665   5.438
   12CHTO   C55 4856   7.136   8.570   5.430
   12CHTO  H112 4857   7.150   8.520   5.527
   12CHTO   C56 4858   7.268   8.647   5.384
   12CHTO  H113 4859   7.242   8.703   5.293
   12CHTO   O42 4860   7.304   8.746   5.482
   12CHTO  H100 4861   7.324   8.706   5.565
   12CHTO   C57 4862   7.387   8.548   5.356
   12CHTO  H114 4863   7.418   8.505   5.451
   12CHTO   N10 4864   7.507   8.615   5.297
   12CHTO  H106 4865   7.563   8.547   5.235
   12CHTO  H107 4866   7.571   8.652   5.376
   12CHTO   C58 4867   7.337   8.434   5.264
   12CHTO  H115 4868   7.313   8.475   5.164
   12CHTO   O37 4869   7.220   8.371   5.320
   12CHTO   C59 4870   7.105   8.457   5.327
   12CHTO  H116 4871   7.083   8.499   5.229
   12CHTO   C70 4872   6.988   8.369   5.369
   12CHTO   O46 4873   6.861   8.430   5.345
   12CHTO  H103 4874   6.792   8.372   5.371
   12CHTO   O39 4875   7.445   8.318   5.251
   12CHTO   C60 4876   7.444   8.253   5.122
   12CHTO  H117 4877   7.352   8.278   5.069
   12CHTO   C62 4878   7.563   8.301   5.034
   12CHTO  H119 4879   7.548   8.410   5.019
   12CHTO   O43 4880   7.687   8.281   5.106
   12CHTO  H101 4881   7.758   8.315   5.056
   12CHTO   C66 4882   7.558   8.225   4.892
   12CHTO  H123 4883   7.461   8.244   4.847
   12CHTO   N12 4884   7.659   8.277   4.796
   12CHTO  H110 4885   7.730   8.201   4.768
   12CHTO  H111 4886   7.709   8.365   4.834
   12CHTO   C69 4887   7.570   8.072   4.918
   12CHTO  H126 4888   7.666   8.051   4.969
   12CHTO   O41 4889   7.451   8.028   5.009
   12CHTO   C64 4890   7.445   8.099   5.141
   12CHTO  H121 4891   7.534   8.071   5.202
   12CHTO   C71 4892   7.320   8.052   5.219
   12CHTO   O47 4893   7.198   8.079   5.148
   12CHTO  H104 4894   7.125   8.048   5.198
   12CHTO   O34 4895   7.564   7.989   4.786
   12CHTO   C49 4896   7.650   7.866   4.746
   12CHTO   H91 4897   7.744   7.904   4.705
   12CHTO   C47 4898   7.573   7.788   4.637
   12CHTO   H89 4899   7.643   7.708   4.604
   12CHTO   O33 4900   7.545   7.873   4.525
   12CHTO   H70 4901   7.510   7.823   4.454
   12CHTO   C45 4902   7.436   7.724   4.698
   12CHTO   H87 4903   7.355   7.797   4.684
   12CHTO    N8 4904   7.403   7.602   4.620
   12CHTO   H75 4905   7.394   7.627   4.515
   12CHTO   H76 4906   7.310   7.561   4.656
   12CHTO   C43 4907   7.448   7.705   4.858
   12CHTO   H85 4908   7.421   7.802   4.900
   12CHTO   O29 4909   7.581   7.667   4.894
   12CHTO   C50 4910   7.680   7.767   4.864
   12CHTO   H92 4911   7.693   7.828   4.955
   12CHTO   C54 4912   7.819   7.699   4.850
   12CHTO   O36 4913   7.820   7.598   4.748
   12CHTO   H72 4914   7.905   7.559   4.743
   12CHTO   O27 4915   7.352   7.614   4.914
   12CHTO   C37 4916   7.264   7.605   5.026
   12CHTO   H79 4917   7.238   7.500   5.045
   12CHTO   C38 4918   7.329   7.660   5.157
   12CHTO   H80 4919   7.363   7.763   5.139
   12CHTO   O31 4920   7.445   7.579   5.186
   12CHTO   H68 4921   7.492   7.614   5.259
   12CHTO   C39 4922   7.225   7.658   5.277
   12CHTO   H81 4923   7.202   7.554   5.298
   12CHTO    N7 4924   7.279   7.717   5.404
   12CHTO   H73 4925   7.308   7.820   5.388
   12CHTO   H74 4926   7.364   7.660   5.439
   12CHTO   C40 4927   7.090   7.728   5.233
   12CHTO   H82 4928   7.105   7.835   5.224
   12CHTO   O26 4929   7.043   7.669   5.111
   12CHTO   C41 4930   7.134   7.684   4.998
   12CHTO   H83 4931   7.157   7.791   4.983
   12CHTO   C52 4932   7.061   7.634   4.871
   12CHTO   O35 4933   6.941   7.714   4.840
   12CHTO   H71 4934   6.876   7.701   4.906
   12CHTO   O28 4935   6.984   7.704   5.328
   12CHTO   C42 4936   6.857   7.778   5.325
   12CHTO   H84 4937   6.796   7.726   5.399
   12CHTO   C44 4938   6.776   7.773   5.191
   12CHTO   H86 4939   6.836   7.821   5.113
   12CHTO   O32 4940   6.758   7.634   5.158
   12CHTO   H69 4941   6.840   7.595   5.134
   12CHTO   C48 4942   6.637   7.848   5.200
   12CHTO   H90 4943   6.573   7.789   5.265
   12CHTO    N9 4944   6.567   7.852   5.067
   12CHTO   H77 4945   6.549   7.751   5.031
   12CHTO   H78 4946   6.473   7.905   5.076
   12CHTO   C51 4947   6.653   7.991   5.263
   12CHTO   H93 4948   6.702   8.057   5.191
   12CHTO   O30 4949   6.727   7.985   5.386
   12CHTO   C46 4950   6.868   7.926   5.372
   12CHTO   H88 4951   6.924   7.983   5.299
   12CHTO   C53 4952   6.938   7.934   5.511
   12CHTO   O72 4953   6.956   8.070   5.550
   12CHTO  H199 4954   7.000   8.073   5.633
   12CHTO   O22 4955   6.523   8.042   5.299
   12CHTO   C31 4956   6.488   8.182   5.328
   12CHTO   H59 4957   6.379   8.183   5.348
   12CHTO   C29 4958   6.556   8.242   5.454
   12CHTO   H57 4959   6.664   8.251   5.435
   12CHTO   O21 4960   6.539   8.149   5.564
   12CHTO   H37 4961   6.587   8.071   5.548
   12CHTO   C27 4962   6.496   8.384   5.488
   12CHTO   H55 4963   6.390   8.372   5.514
   12CHTO    N5 4964   6.564   8.451   5.603
   12CHTO   H43 4965   6.652   8.396   0.000
   12CHTO   H44 4966   6.591   8.553   5.579
   12CHTO   C25 4967   6.498   8.476   5.359
   12CHTO   H53 4968   6.601   8.509   5.339
   12CHTO   O17 4969   6.449   8.407   5.241
   12CHTO   C32 4970   6.511   8.281   5.210
   12CHTO   H60 4971   6.618   8.295   5.195
   12CHTO   C36 4972   6.447   8.229   5.078
   12CHTO   O25 4973   6.475   8.318   4.969
   12CHTO   H40 4974   6.426   8.397   4.979
   12CHTO   O15 4975   6.406   8.601   5.382
   12CHTO   C19 4976   6.296   8.665   5.311
   12CHTO   H47 4977   6.261   8.742   5.382
   12CHTO   C20 4978   6.336   8.735   5.178
   12CHTO   H48 4979   6.372   8.663   5.103
   12CHTO   O19 4980   6.444   8.826   5.209
   12CHTO   H35 4981   6.522   8.777   5.230
   12CHTO   C21 4982   6.213   8.813   5.116
   12CHTO   H49 4983   6.185   8.894   5.183
   12CHTO    N4 4984   6.244   8.876   4.985
   12CHTO   H41 4985   6.158   8.930   4.948
   12CHTO   H42 4986   6.272   8.801   4.913
   12CHTO   C22 4987   6.090   8.718   5.107
   12CHTO   H50 4988   6.108   8.643   5.030
   12CHTO   O14 4989   6.065   8.653   5.233
   12CHTO   C23 4990   6.173   8.573   5.283
   12CHTO   H51 4991   6.196   8.497   5.207
   12CHTO   C34 4992   6.127   8.499   5.409
   12CHTO   O23 4993   6.022   8.406   5.380
   12CHTO   H38 4994   5.996   8.362   5.458
   12CHTO   O16 4995   5.969   8.792   5.080
   12CHTO   C24 4996   5.852   8.703   5.013
   12CHTO   H52 4997   5.872   8.596   5.022
   12CHTO   C26 4998   5.838   8.740   4.863
   12CHTO   H54 4999   5.821   8.850   4.856
   12CHTO   O20 5000   5.963   8.711   4.797
   12CHTO   H36 5001   5.980   8.618   4.798
   12CHTO   C30 5002   5.716   8.667   4.799
   12CHTO   H58 5003   5.734   8.558   4.798
   12CHTO    N6 5004   5.696   8.707   4.657
   12CHTO   H45 5005   5.675   8.813   4.650
   12CHTO   H46 5006   5.614   8.652   4.614
   12CHTO   C33 5007   5.588   8.690   4.885
   12CHTO   H61 5008   5.561   8.797   4.881
   12CHTO   O18 5009   5.614   8.656   5.022
   12CHTO   C28 5010   5.719   8.731   5.086
   12CHTO   H56 5011   5.697   8.838   5.081
   12CHTO   C35 5012   5.727   8.688   5.234
   12CHTO   O24 5013   5.609   8.723   5.307
   12CHTO   H39 5014   5.618   8.697   5.396
   12CHTO    O9 5015   5.472   8.620   4.835
   12CHTO   C13 5016   5.472   8.457   4.860
   12CHTO   H26 5017   5.558   8.431   4.925
   12CHTO   C11 5018   5.480   8.384   4.719
   12CHTO   H24 5019   5.582   8.401   4.679
   12CHTO    O8 5020   5.386   8.444   4.628
   12CHTO    H3 5021   5.409   8.533   4.612
   12CHTO    C9 5022   5.458   8.231   4.740
   12CHTO   H22 5023   5.538   8.200   4.810
   12CHTO    N2 5024   5.486   8.152   4.617
   12CHTO   H10 5025   5.574   8.091   4.630
   12CHTO   H11 5026   5.401   8.090   4.592
   12CHTO    C7 5027   5.319   8.205   4.812
   12CHTO   H20 5028   5.347   8.141   4.899
   12CHTO    O4 5029   5.257   8.325   4.860
   12CHTO   C14 5030   5.342   8.409   4.940
   12CHTO   H27 5031   5.374   8.350   5.029
   12CHTO   C18 5032   5.253   8.524   4.994
   12CHTO   O13 5033   5.323   8.602   5.092
   12CHTO    H7 5034   5.266   8.670   5.124
   12CHTO    O2 5035   5.205   8.122   4.719
   12CHTO    C1 5036   5.142   8.012   4.788
   12CHTO   H14 5037   5.183   8.004   4.892
   12CHTO    C2 5038   5.162   7.873   4.716
   12CHTO   H15 5039   5.124   7.886   4.613
   12CHTO    O6 5040   5.303   7.844   4.712
   12CHTO    H1 5041   5.318   7.767   4.661
   12CHTO    C3 5042   5.081   7.757   4.792
   12CHTO   H16 5043   5.133   7.737   4.887
   12CHTO    N1 5044   5.082   7.628   4.714
   12CHTO    H8 5045   5.124   7.548   4.774
   12CHTO    H9 5046   4.982   7.601   4.682
   12CHTO    C4 5047   4.935   7.803   4.831
   12CHTO   H17 5048   4.870   7.797   4.743
   12CHTO    O1 5049   4.932   7.935   4.886
   12CHTO    C5 5050   4.989   8.038   4.803
   12CHTO   H18 5051   4.945   8.033   4.704
   12CHTO   C16 5052   4.955   8.175   4.866
   12CHTO   O11 5053   5.007   8.189   4.999
   12CHTO    H5 5054   4.982   8.272   5.034
   12CHTO    O3 5055   4.885   7.717   4.936
   12CHTO    C6 5056   4.742   7.726   4.967
   12CHTO   H19 5057   4.694   7.814   4.922
   12CHTO    C8 5058   4.667   7.599   4.915
   12CHTO   H21 5059   4.718   7.511   4.954
   12CHTO    O7 5060   4.675   7.600   4.771
   12CHTO    H2 5061   4.763   7.583   4.743
   12CHTO   C12 5062   4.517   7.598   4.967
   12CHTO   H25 5063   4.466   7.682   4.916
   12CHTO    N3 5064   4.446   7.472   4.925
   12CHTO   H12 5065   4.444   7.465   4.817
   12CHTO   H13 5066   4.345   7.473   4.963
   12CHTO   C15 5067   4.514   7.622   5.122
   12CHTO   H28 5068   4.555   7.537   5.177
   12CHTO   O10 5069   4.372   7.653   5.175
   12CHTO    H4 5070   4.317   7.579   5.162
   12CHTO    O5 5071   4.584   7.742   5.156
   12CHTO   C10 5072   4.723   7.739   5.121
   12CHTO   H23 5073   4.768   7.652   5.171
   12CHTO   C17 5074   4.792   7.863   5.181
   12CHTO   O12 5075   4.738   7.985   5.129
   12CHTO    H6 5076   4.759   7.994   5.038
   13CHTO  H203 5077   7.455   4.309   1.814
   13CHTO   O82 5078   7.443   4.356   1.895
   13CHTO  C123 5079   7.431   4.497   1.871
   13CHTO  H227 5080   7.511   4.527   1.801
   13CHTO   O77 5081   7.301   4.509   1.804
   13CHTO  C118 5082   7.267   4.643   1.764
   13CHTO  H222 5083   7.346   4.682   1.699
   13CHTO  C125 5084   7.132   4.637   1.682
   13CHTO   O84 5085   7.024   4.586   1.760
   13CHTO  H205 5086   6.946   4.584   1.708
   13CHTO  C114 5087   7.255   4.732   1.890
   13CHTO  H218 5088   7.179   4.689   1.955
   13CHTO  C116 5089   7.390   4.731   1.970
   13CHTO  H220 5090   7.468   4.782   1.909
   13CHTO   O79 5091   7.374   4.811   2.089
   13CHTO  H201 5092   7.361   4.901   2.066
   13CHTO  C120 5093   7.433   4.583   2.003
   13CHTO  H224 5094   7.358   4.543   2.074
   13CHTO   N21 5095   7.565   4.577   2.071
   13CHTO  H211 5096   7.552   4.583   2.178
   13CHTO  H212 5097   7.630   4.655   2.036
   13CHTO   O75 5098   7.215   4.861   1.843
   13CHTO  C112 5099   7.114   4.938   1.948
   13CHTO  H216 5100   7.161   4.940   2.048
   13CHTO   O73 5101   6.989   4.866   1.950
   13CHTO  C113 5102   6.895   4.916   2.046
   13CHTO  H217 5103   6.942   4.915   2.147
   13CHTO  C124 5104   6.775   4.820   2.050
   13CHTO   O83 5105   6.811   4.687   2.087
   13CHTO  H204 5106   6.861   4.647   2.018
   13CHTO  C109 5107   6.853   5.061   2.007
   13CHTO  H213 5108   6.805   5.055   1.908
   13CHTO  C110 5109   6.980   5.151   1.997
   13CHTO  H214 5110   7.022   5.163   2.098
   13CHTO   O78 5111   6.940   5.282   1.951
   13CHTO  H200 5112   6.889   5.325   2.017
   13CHTO  C111 5113   7.086   5.086   1.902
   13CHTO  H215 5114   7.044   5.083   1.801
   13CHTO   N19 5115   7.213   5.162   1.894
   13CHTO  H207 5116   7.281   5.114   1.826
   13CHTO  H208 5117   7.194   5.263   1.860
   13CHTO   O74 5118   6.758   5.116   2.104
   13CHTO  C115 5119   6.606   5.126   2.048
   13CHTO  H219 5120   6.599   5.093   1.944
   13CHTO   O76 5121   6.510   5.031   2.124
   13CHTO  C122 5122   6.484   5.072   2.259
   13CHTO  H226 5123   6.577   5.066   2.314
   13CHTO  C126 5124   6.389   4.965   2.323
   13CHTO   O85 5125   6.262   4.956   2.258
   13CHTO  H206 5126   6.272   4.921   2.172
   13CHTO  C121 5127   6.423   5.218   2.268
   13CHTO  H225 5128   6.319   5.212   2.307
   13CHTO   O81 5129   6.497   5.296   2.364
   13CHTO  H202 5130   6.586   5.306   2.336
   13CHTO  C119 5131   6.420   5.289   2.129
   13CHTO  H223 5132   6.349   5.232   2.069
   13CHTO  C117 5133   6.561   5.278   2.058
   13CHTO  H221 5134   6.642   5.329   2.110
   13CHTO   N20 5135   6.557   5.342   1.922
   13CHTO  H209 5136   6.485   5.291   1.859
   13CHTO  H210 5137   6.532   5.446   1.931
   13CHTO   O80 5138   6.351   5.436   2.133
   13CHTO  C103 5139   6.193   5.455   2.093
   13CHTO  H190 5140   6.173   5.561   2.075
   13CHTO  C101 5141   6.139   5.375   1.968
   13CHTO  H188 5142   6.155   5.268   1.983
   13CHTO   O68 5143   6.218   5.421   1.841
   13CHTO  H168 5144   6.308   5.397   1.850
   13CHTO   C99 5145   5.981   5.400   1.953
   13CHTO  H186 5146   5.963   5.508   1.936
   13CHTO   N17 5147   5.919   5.327   1.837
   13CHTO  H174 5148   5.928   5.220   1.852
   13CHTO  H175 5149   5.966   5.358   1.745
   13CHTO   C97 5150   5.910   5.366   2.087
   13CHTO  H184 5151   5.912   5.256   2.102
   13CHTO   O64 5152   5.970   5.436   2.197
   13CHTO  C104 5153   6.110   5.414   2.220
   13CHTO  H191 5154   6.130   5.310   2.245
   13CHTO  C108 5155   6.153   5.496   2.342
   13CHTO   O71 5156   6.080   5.462   2.460
   13CHTO  H171 5157   5.991   5.490   2.452
   13CHTO   O62 5158   5.774   5.415   2.091
   13CHTO   C91 5159   5.675   5.336   2.160
   13CHTO  H178 5160   5.721   5.244   2.197
   13CHTO   C92 5161   5.567   5.292   2.055
   13CHTO  H179 5162   5.533   5.383   2.002
   13CHTO   O66 5163   5.631   5.210   1.955
   13CHTO  H166 5164   5.692   5.261   1.905
   13CHTO   C93 5165   5.445   5.214   2.117
   13CHTO  H180 5166   5.480   5.112   2.140
   13CHTO   N16 5167   5.331   5.198   2.023
   13CHTO  H172 5168   5.313   5.094   2.003
   13CHTO  H173 5169   5.348   5.252   1.931
   13CHTO   C94 5170   5.395   5.280   2.251
   13CHTO  H181 5171   5.340   5.373   2.233
   13CHTO   O61 5172   5.505   5.313   2.337
   13CHTO   C95 5173   5.599   5.405   2.281
   13CHTO  H182 5174   5.546   5.494   2.246
   13CHTO  C106 5175   5.694   5.450   2.398
   13CHTO   O69 5176   5.769   5.566   2.364
   13CHTO  H169 5177   5.712   5.640   2.356
   13CHTO   O63 5178   5.304   5.175   2.332
   13CHTO   C96 5179   5.178   5.240   2.398
   13CHTO  H183 5180   5.132   5.305   2.324
   13CHTO   C98 5181   5.209   5.327   2.525
   13CHTO  H185 5182   5.283   5.404   2.501
   13CHTO   O67 5183   5.089   5.398   2.561
   13CHTO  H167 5184   5.068   5.461   2.496
   13CHTO  C102 5185   5.255   5.237   2.651
   13CHTO  H189 5186   5.226   5.294   2.740
   13CHTO   N18 5187   5.401   5.217   2.662
   13CHTO  H176 5188   5.451   5.312   2.670
   13CHTO  H177 5189   5.423   5.157   2.750
   13CHTO  C105 5190   5.176   5.102   2.652
   13CHTO  H192 5191   5.238   5.023   2.610
   13CHTO   O65 5192   5.054   5.107   2.575
   13CHTO  C100 5193   5.077   5.122   2.433
   13CHTO  H187 5194   5.118   5.027   2.396
   13CHTO  C107 5195   4.940   5.143   2.364
   13CHTO   O70 5196   4.856   5.028   2.380
   13CHTO  H170 5197   4.774   5.042   2.337
   13CHTO   O57 5198   5.145   5.072   2.805
   13CHTO   C85 5199   5.100   4.940   2.840
   13CHTO  H157 5200   5.136   4.872   2.759
   13CHTO   C83 5201   4.944   4.934   2.832
   13CHTO  H155 5202   4.914   4.960   2.730
   13CHTO   O56 5203   4.888   5.034   2.919
   13CHTO  H135 5204   4.795   5.038   2.907
   13CHTO   C81 5205   4.897   4.788   2.862
   13CHTO  H153 5206   4.945   4.722   2.790
   13CHTO   N14 5207   4.752   4.769   2.837
   13CHTO  H141 5208   4.694   4.826   2.906
   13CHTO  H142 5209   4.726   4.665   2.848
   13CHTO   C79 5210   4.943   4.745   3.007
   13CHTO  H151 5211   4.920   4.639   3.017
   13CHTO   O52 5212   5.089   4.758   3.018
   13CHTO   C86 5213   5.144   4.889   2.983
   13CHTO  H158 5214   5.108   4.957   3.064
   13CHTO   C90 5215   5.298   4.882   2.998
   13CHTO   O60 5216   5.360   5.010   2.986
   13CHTO  H138 5217   5.355   5.041   2.897
   13CHTO   O50 5218   4.881   4.816   3.115
   13CHTO   C73 5219   4.758   4.805   3.189
   13CHTO  H145 5220   4.692   4.731   3.141
   13CHTO   C74 5221   4.685   4.943   3.190
   13CHTO  H146 5222   4.666   4.970   3.084
   13CHTO   O54 5223   4.555   4.925   3.250
   13CHTO  H133 5224   4.507   5.005   3.247
   13CHTO   C75 5225   4.775   5.048   3.263
   13CHTO  H147 5226   4.870   5.057   3.209
   13CHTO   N13 5227   4.719   5.186   3.265
   13CHTO  H139 5228   4.787   5.253   3.314
   13CHTO  H140 5229   4.625   5.187   3.318
   13CHTO   C76 5230   4.810   4.995   3.410
   13CHTO  H148 5231   4.720   5.000   3.472
   13CHTO   O49 5232   4.861   4.858   3.409
   13CHTO   C77 5233   4.784   4.761   3.336
   13CHTO  H149 5234   4.689   4.748   3.387
   13CHTO   C88 5235   4.855   4.625   3.349
   13CHTO   O58 5236   5.000   4.628   3.304
   13CHTO  H136 5237   5.049   4.684   3.361
   13CHTO   O51 5238   4.928   5.075   3.468
   13CHTO   C78 5239   4.937   5.075   3.622
   13CHTO  H150 5240   4.873   4.996   3.667
   13CHTO   C80 5241   4.890   5.213   3.672
   13CHTO  H152 5242   4.936   5.292   3.608
   13CHTO   O55 5243   4.747   5.221   3.652
   13CHTO  H134 5244   4.727   5.223   3.561
   13CHTO   C84 5245   4.930   5.240   3.823
   13CHTO  H156 5246   4.876   5.169   3.886
   13CHTO   N15 5247   4.893   5.378   3.868
   13CHTO  H143 5248   4.919   5.390   3.971
   13CHTO  H144 5249   4.945   5.451   3.810
   13CHTO   C87 5250   5.082   5.213   3.836
   13CHTO  H159 5251   5.135   5.278   3.767
   13CHTO   O53 5252   5.105   5.067   3.800
   13CHTO   C82 5253   5.083   5.043   3.661
   13CHTO  H154 5254   5.154   5.101   3.601
   13CHTO   C89 5255   5.117   4.894   3.637
   13CHTO   O59 5256   5.126   4.860   3.499
   13CHTO  H137 5257   5.147   4.769   3.490
   13CHTO   O45 5258   5.142   5.236   3.988
   13CHTO   C67 5259   5.284   5.258   3.982
   13CHTO  H124 5260   5.323   5.214   3.891
   13CHTO   C65 5261   5.318   5.412   3.982
   13CHTO  H122 5262   5.243   5.460   4.046
   13CHTO   O44 5263   5.299   5.456   3.846
   13CHTO  H102 5264   5.305   5.549   3.842
   13CHTO   C63 5265   5.457   5.444   4.050
   13CHTO  H120 5266   5.443   5.445   4.158
   13CHTO   N11 5267   5.513   5.581   4.026
   13CHTO  H108 5268   5.599   5.597   4.088
   13CHTO  H109 5269   5.439   5.655   4.048
   13CHTO   C61 5270   5.557   5.326   4.020
   13CHTO  H118 5271   5.652   5.350   4.069
   13CHTO   O40 5272   5.509   5.201   4.078
   13CHTO   C68 5273   5.364   5.187   4.099
   13CHTO  H125 5274   5.338   5.235   4.196
   13CHTO   C72 5275   5.328   5.037   4.112
   13CHTO   O48 5276   5.358   4.962   3.994
   13CHTO  H105 5277   5.335   4.872   4.008
   13CHTO   O38 5278   5.575   5.309   3.877
   13CHTO   C55 5279   5.701   5.265   3.822
   13CHTO  H112 5280   5.680   5.239   3.717
   13CHTO   C56 5281   5.768   5.144   3.900
   13CHTO  H113 5282   5.783   5.176   4.004
   13CHTO   O42 5283   5.676   5.033   3.902
   13CHTO  H100 5284   5.600   5.055   3.952
   13CHTO   C57 5285   5.905   5.103   3.834
   13CHTO  H114 5286   5.882   5.059   3.737
   13CHTO   N10 5287   5.980   5.000   3.912
   13CHTO  H106 5288   5.961   5.010   4.017
   13CHTO  H107 5289   6.086   5.007   3.894
   13CHTO   C58 5290   5.993   5.229   3.811
   13CHTO  H115 5291   6.034   5.264   3.909
   13CHTO   O37 5292   5.922   5.336   3.747
   13CHTO   C59 5293   5.804   5.382   3.814
   13CHTO  H116 5294   5.830   5.418   3.914
   13CHTO   C70 5295   5.747   5.499   3.732
   13CHTO   O46 5296   5.833   5.613   3.730
   13CHTO  H103 5297   5.913   5.593   3.685
   13CHTO   O39 5298   6.114   5.192   3.708
   13CHTO   C60 5299   6.232   5.272   3.725
   13CHTO  H117 5300   6.212   5.354   3.795
   13CHTO   C62 5301   6.349   5.187   3.784
   13CHTO  H119 5302   6.314   5.151   3.883
   13CHTO   O43 5303   6.371   5.072   3.699
   13CHTO  H101 5304   6.436   5.017   3.737
   13CHTO   C66 5305   6.479   5.279   3.802
   13CHTO  H123 5306   6.454   5.363   3.867
   13CHTO   N12 5307   6.591   5.208   3.869
   13CHTO  H110 5308   6.676   5.273   3.880
   13CHTO  H111 5309   6.558   5.171   3.965
   13CHTO   C69 5310   6.520   5.339   3.665
   13CHTO  H126 5311   6.547   5.257   3.594
   13CHTO   O41 5312   6.399   5.420   3.607
   13CHTO   C64 5313   6.274   5.338   3.591
   13CHTO  H121 5314   6.294   5.257   3.518
   13CHTO   C71 5315   6.162   5.427   3.532
   13CHTO   O47 5316   6.131   5.539   3.615
   13CHTO  H104 5317   6.203   5.599   3.618
   13CHTO   O34 5318   6.642   5.434   3.677
   13CHTO   C49 5319   6.731   5.505   3.576
   13CHTO   H91 5320   6.761   5.431   3.502
   13CHTO   C47 5321   6.854   5.560   3.652
   13CHTO   H89 5322   6.919   5.602   3.572
   13CHTO   O33 5323   6.926   5.452   3.715
   13CHTO   H70 5324   6.874   5.412   3.782
   13CHTO   C45 5325   6.811   5.673   3.760
   13CHTO   H87 5326   6.792   5.623   3.856
   13CHTO    N8 5327   6.926   5.766   3.778
   13CHTO   H75 5328   6.964   5.758   3.878
   13CHTO   H76 5329   6.895   5.867   3.758
   13CHTO   C43 5330   6.670   5.740   3.719
   13CHTO   H85 5331   6.593   5.673   3.759
   13CHTO   O29 5332   6.660   5.752   3.576
   13CHTO   C50 5333   6.662   5.627   3.505
   13CHTO   H92 5334   6.558   5.598   3.483
   13CHTO   C54 5335   6.723   5.651   3.365
   13CHTO   O36 5336   6.646   5.744   3.287
   13CHTO   H72 5337   6.653   5.830   3.325
   13CHTO   O27 5338   6.645   5.866   3.783
   13CHTO   C37 5339   6.537   5.909   3.867
   13CHTO   H79 5340   6.451   5.842   3.856
   13CHTO   C38 5341   6.581   5.903   4.017
   13CHTO   H80 5342   6.676   5.958   4.027
   13CHTO   O31 5343   6.606   5.765   4.051
   13CHTO   H68 5344   6.527   5.715   4.044
   13CHTO   C39 5345   6.473   5.967   4.112
   13CHTO   H81 5346   6.386   5.900   4.112
   13CHTO    N7 5347   6.518   5.981   4.256
   13CHTO   H73 5348   6.618   5.943   4.268
   13CHTO   H74 5349   6.450   5.928   4.321
   13CHTO   C40 5350   6.423   6.106   4.056
   13CHTO   H82 5351   6.498   6.183   4.072
   13CHTO   O26 5352   6.386   6.095   3.918
   13CHTO   C41 5353   6.494   6.054   3.830
   13CHTO   H83 5354   6.580   6.122   3.841
   13CHTO   C52 5355   6.442   6.065   3.684
   13CHTO   O35 5356   6.549   6.048   3.582
   13CHTO   H71 5357   6.611   6.119   3.589
   13CHTO   O28 5358   6.300   6.146   4.120
   13CHTO   C42 5359   6.254   6.285   4.116
   13CHTO   H84 5360   6.305   6.331   4.032
   13CHTO   C44 5361   6.290   6.371   4.242
   13CHTO   H86 5362   6.252   6.321   4.331
   13CHTO   O32 5363   6.434   6.375   4.252
   13CHTO   H69 5364   6.467   6.290   4.274
   13CHTO   C48 5365   6.228   6.517   4.237
   13CHTO   H90 5366   6.278   6.572   4.157
   13CHTO    N9 5367   6.252   6.594   4.364
   13CHTO   H77 5368   6.159   6.620   4.412
   13CHTO   H78 5369   6.310   6.682   4.343
   13CHTO   C51 5370   6.075   6.507   4.200
   13CHTO   H93 5371   6.022   6.458   4.282
   13CHTO   O30 5372   6.060   6.435   4.077
   13CHTO   C46 5373   6.102   6.294   4.087
   13CHTO   H88 5374   6.048   6.247   4.169
   13CHTO   C53 5375   6.065   6.224   3.954
   13CHTO   O72 5376   5.923   6.219   3.936
   13CHTO  H199 5377   5.890   6.305   3.920
   13CHTO   O22 5378   6.016   6.636   4.171
   13CHTO   C31 5379   5.897   6.688   4.241
   13CHTO   H59 5380   5.898   6.642   4.343
   13CHTO   C29 5381   5.902   6.841   4.260
   13CHTO   H57 5382   5.911   6.886   4.160
   13CHTO   O21 5383   6.023   6.874   4.331
   13CHTO   H37 5384   6.099   6.853   4.279
   13CHTO   C27 5385   5.773   6.898   4.331
   13CHTO   H55 5386   5.771   6.861   4.435
   13CHTO    N5 5387   5.771   7.047   4.336
   13CHTO   H43 5388   5.767   7.087   4.236
   13CHTO   H44 5389   5.686   7.081   4.393
   13CHTO   C25 5390   5.645   6.843   4.260
   13CHTO   H53 5391   5.641   6.883   4.157
   13CHTO   O17 5392   5.651   6.698   4.252
   13CHTO   C32 5393   5.761   6.646   4.175
   13CHTO   H60 5394   5.757   6.687   4.074
   13CHTO   C36 5395   5.741   6.493   4.169
   13CHTO   O25 5396   5.620   6.459   4.099
   13CHTO   H40 5397   5.610   6.366   4.098
   13CHTO   O15 5398   5.514   6.881   4.335
   13CHTO   C19 5399   5.421   6.868   4.446
   13CHTO   H47 5400   5.486   6.842   4.530
   13CHTO   C20 5401   5.348   7.003   4.479
   13CHTO   H48 5402   5.304   7.048   4.389
   13CHTO   O19 5403   5.449   7.095   4.526
   13CHTO   H35 5404   5.486   7.065   4.607
   13CHTO   C21 5405   5.232   6.986   4.586
   13CHTO   H49 5406   5.277   6.960   4.682
   13CHTO    N4 5407   5.155   7.111   4.607
   13CHTO   H41 5408   5.108   7.142   4.514
   13CHTO   H42 5409   5.078   7.096   4.681
   13CHTO   C22 5410   5.144   6.867   4.542
   13CHTO   H50 5411   5.100   6.889   4.445
   13CHTO   O14 5412   5.224   6.748   4.534
   13CHTO   C23 5413   5.322   6.750   4.428
   13CHTO   H51 5414   5.268   6.755   4.333
   13CHTO   C34 5415   5.396   6.615   4.433
   13CHTO   O23 5416   5.308   6.504   4.419
   13CHTO   H38 5417   5.358   6.424   4.423
   13CHTO   O16 5418   5.040   6.834   4.638
   13CHTO   C24 5419   4.923   6.742   4.575
   13CHTO   H52 5420   4.954   6.696   4.481
   13CHTO   C26 5421   4.799   6.830   4.550
   13CHTO   H54 5422   4.774   6.883   4.644
   13CHTO   O20 5423   4.832   6.929   4.451
   13CHTO   H36 5424   4.850   6.888   4.368
   13CHTO   C30 5425   4.675   6.743   4.508
   13CHTO   H58 5426   4.692   6.701   4.407
   13CHTO    N6 5427   4.552   6.826   4.498
   13CHTO   H45 5428   4.468   6.763   4.469
   13CHTO   H46 5429   4.565   6.903   4.424
   13CHTO   C33 5430   4.658   6.622   4.604
   13CHTO   H61 5431   4.627   6.658   4.704
   13CHTO   O18 5432   4.782   6.551   4.618
   13CHTO   C28 5433   4.890   6.627   4.673
   13CHTO   H56 5434   4.863   6.670   4.769
   13CHTO   C35 5435   5.013   6.535   4.691
   13CHTO   O24 5436   4.990   6.430   4.786
   13CHTO   H39 5437   4.983   6.465   4.872
   13CHTO    O9 5438   4.552   6.534   4.559
   13CHTO   C13 5439   4.446   6.489   4.674
   13CHTO   H26 5440   4.407   6.582   4.721
   13CHTO   C11 5441   4.517   6.395   4.780
   13CHTO   H24 5442   4.582   6.458   4.843
   13CHTO    O8 5443   4.601   6.299   4.713
   13CHTO    H3 5444   4.650   6.249   4.776
   13CHTO    C9 5445   4.408   6.328   4.869
   13CHTO   H22 5446   4.350   6.412   4.911
   13CHTO    N2 5447   4.463   6.260   4.988
   13CHTO   H10 5448   4.521   6.174   4.958
   13CHTO   H11 5449   4.523   6.328   5.046
   13CHTO    C7 5450   4.310   6.242   4.778
   13CHTO   H20 5451   4.209   6.268   4.818
   13CHTO    O4 5452   4.316   6.276   4.639
   13CHTO   C14 5453   4.318   6.417   4.610
   13CHTO   H27 5454   4.227   6.462   4.655
   13CHTO   C18 5455   4.305   6.434   4.457
   13CHTO   O13 5456   4.288   6.571   4.421
   13CHTO    H7 5457   4.282   6.579   4.328
   13CHTO    O2 5458   4.331   6.079   4.790
   13CHTO    C1 5459   4.207   6.005   4.794
   13CHTO   H14 5460   4.126   6.067   4.750
   13CHTO    C2 5461   4.163   5.964   4.941
   13CHTO   H15 5462   4.252   5.918   4.987
   13CHTO    O6 5463   4.129   6.084   5.012
   13CHTO    H1 5464   4.110   6.064   5.102
   13CHTO    C3 5465   4.041   5.859   4.938
   13CHTO   H16 5466   3.953   5.911   4.898
   13CHTO    N1 5467   4.007   5.810   5.076
   13CHTO    H8 5468   4.019   5.703   5.083
   13CHTO    H9 5469   3.905   5.836   5.100
   13CHTO    C4 5470   4.074   5.744   4.836
   13CHTO   H17 5471   4.160   5.688   4.873
   13CHTO    O1 5472   4.101   5.799   4.707
   13CHTO    C5 5473   4.220   5.880   4.702
   13CHTO   H18 5474   4.306   5.822   4.736
   13CHTO   C16 5475   4.243   5.923   4.555
   13CHTO   O11 5476   4.263   5.810   4.469
   13CHTO    H5 5477   4.183   5.760   4.463
   13CHTO    O3 5478   3.961   5.655   4.818
   13CHTO    C6 5479   3.994   5.525   4.757
   13CHTO   H19 5480   4.088   5.527   4.702
   13CHTO    C8 5481   4.003   5.413   4.866
   13CHTO   H21 5482   3.911   5.414   4.924
   13CHTO    O7 5483   4.114   5.446   4.951
   13CHTO    H2 5484   4.117   5.387   5.024
   13CHTO   C12 5485   4.020   5.271   4.799
   13CHTO   H25 5486   4.120   5.271   4.750
   13CHTO    N3 5487   4.023   5.160   4.901
   13CHTO   H12 5488   4.012   5.199   5.002
   13CHTO   H13 5489   3.946   5.087   4.881
   13CHTO   C15 5490   3.910   5.251   4.688
   13CHTO   H28 5491   3.811   5.240   4.732
   13CHTO   O10 5492   3.939   5.129   4.595
   13CHTO    H4 5493   4.026   5.134   4.559
   13CHTO    O5 5494   3.911   5.360   4.595
   13CHTO   C10 5495   3.883   5.488   4.655
   13CHTO   H23 5496   3.786   5.481   4.706
   13CHTO   C17 5497   3.869   5.593   4.544
   13CHTO   O12 5498   3.755   5.565   4.461
   13CHTO    H6 5499   3.749   5.630   4.394
   14CHTO  H203 5500   5.455   5.192   3.616
   14CHTO   O82 5501   5.430   5.117   3.668
   14CHTO  C123 5502   5.500   5.000   3.622
   14CHTO  H227 5503   5.608   5.018   3.630
   14CHTO   O77 5504   5.459   4.898   3.717
   14CHTO  C118 5505   5.528   4.774   3.700
   14CHTO  H222 5506   5.637   4.792   3.696
   14CHTO  C125 5507   5.496   4.688   3.828
   14CHTO   O84 5508   5.589   4.580   3.844
   14CHTO  H205 5509   5.674   4.614   3.866
   14CHTO  C114 5510   5.482   4.709   3.568
   14CHTO  H218 5511   5.374   4.690   3.575
   14CHTO  C116 5512   5.507   4.807   3.448
   14CHTO  H220 5513   5.616   4.808   3.428
   14CHTO   O79 5514   5.445   4.757   3.329
   14CHTO  H201 5515   5.352   4.750   3.340
   14CHTO  C120 5516   5.458   4.956   3.477
   14CHTO  H224 5517   5.348   4.954   3.470
   14CHTO   N21 5518   5.505   5.051   3.373
   14CHTO  H211 5519   5.435   5.133   3.364
   14CHTO  H212 5520   5.604   5.088   3.397
   14CHTO   O75 5521   5.555   4.584   3.560
   14CHTO  C112 5522   5.483   4.447   3.480
   14CHTO  H216 5523   5.561   4.369   3.473
   14CHTO   O73 5524   5.438   4.489   3.351
   14CHTO  C113 5525   5.388   4.384   3.268
   14CHTO  H217 5526   5.467   4.306   3.256
   14CHTO  C124 5527   5.365   4.445   3.129
   14CHTO   O83 5528   5.267   4.549   3.127
   14CHTO  H204 5529   5.183   4.514   3.146
   14CHTO  C109 5530   5.260   4.320   3.331
   14CHTO  H213 5531   5.182   4.397   3.331
   14CHTO  C110 5532   5.292   4.275   3.477
   14CHTO  H214 5533   5.358   4.187   3.472
   14CHTO   O78 5534   5.169   4.232   3.539
   14CHTO  H200 5535   5.138   4.153   3.500
   14CHTO  C111 5536   5.361   4.388   3.560
   14CHTO  H215 5537   5.288   4.468   3.577
   14CHTO   N19 5538   5.405   4.341   3.694
   14CHTO  H207 5539   5.451   4.423   3.748
   14CHTO  H208 5540   5.321   4.304   3.750
   14CHTO   O74 5541   5.213   4.204   3.254
   14CHTO  C115 5542   5.101   4.237   3.136
   14CHTO  H219 5543   5.083   4.344   3.126
   14CHTO   O76 5544   5.154   4.188   2.991
   14CHTO  C122 5545   5.062   4.206   2.882
   14CHTO  H226 5546   5.103   4.153   2.796
   14CHTO  C126 5547   5.057   4.358   2.840
   14CHTO   O85 5548   4.967   4.383   2.732
   14CHTO  H206 5549   4.969   4.474   2.710
   14CHTO  C121 5550   4.919   4.147   2.914
   14CHTO  H225 5551   4.850   4.178   2.833
   14CHTO   O81 5552   4.922   4.004   2.912
   14CHTO  H202 5553   4.977   3.971   2.981
   14CHTO  C119 5554   4.864   4.202   3.049
   14CHTO  H223 5555   4.863   4.310   3.039
   14CHTO  C117 5556   4.962   4.169   3.168
   14CHTO  H221 5557   4.984   4.063   3.184
   14CHTO   N20 5558   4.908   4.219   3.298
   14CHTO  H209 5559   4.892   4.325   3.294
   14CHTO  H210 5560   4.816   4.168   3.322
   14CHTO   O80 5561   4.710   4.171   3.067
   14CHTO  C103 5562   4.606   4.242   2.971
   14CHTO  H190 5563   4.657   4.307   2.900
   14CHTO  C101 5564   4.511   4.147   2.890
   14CHTO  H188 5565   4.470   4.073   2.959
   14CHTO   O68 5566   4.596   4.072   2.782
   14CHTO  H168 5567   4.629   4.133   2.719
   14CHTO   C99 5568   4.388   4.226   2.822
   14CHTO  H186 5569   4.428   4.288   2.739
   14CHTO   N17 5570   4.285   4.135   2.762
   14CHTO  H174 5571   4.211   4.193   2.708
   14CHTO  H175 5572   4.238   4.076   2.839
   14CHTO   C97 5573   4.324   4.326   2.922
   14CHTO  H184 5574   4.266   4.270   2.998
   14CHTO   O64 5575   4.426   4.407   2.982
   14CHTO  C104 5576   4.519   4.335   3.063
   14CHTO  H191 5577   4.469   4.274   3.139
   14CHTO  C108 5578   4.605   4.437   3.139
   14CHTO   O71 5579   4.525   4.518   3.225
   14CHTO  H171 5580   4.579   4.580   3.270
   14CHTO   O62 5581   4.238   4.420   2.854
   14CHTO   C91 5582   4.142   4.493   2.933
   14CHTO  H178 5583   4.094   4.421   2.999
   14CHTO   C92 5584   4.031   4.546   2.836
   14CHTO  H179 5585   3.992   4.462   2.775
   14CHTO   O66 5586   3.919   4.591   2.914
   14CHTO  H166 5587   3.879   4.519   2.958
   14CHTO   C93 5588   4.080   4.667   2.746
   14CHTO  H180 5589   3.991   4.725   2.719
   14CHTO   N16 5590   4.140   4.624   2.617
   14CHTO  H172 5591   4.084   4.664   2.534
   14CHTO  H173 5592   4.145   4.516   2.610
   14CHTO   C94 5593   4.179   4.760   2.827
   14CHTO  H181 5594   4.284   4.735   2.807
   14CHTO   O61 5595   4.158   4.743   2.968
   14CHTO   C95 5596   4.202   4.615   3.017
   14CHTO  H182 5597   4.311   4.612   3.013
   14CHTO  C106 5598   4.164   4.603   3.169
   14CHTO   O69 5599   4.235   4.700   3.248
   14CHTO  H169 5600   4.204   4.786   3.228
   14CHTO   O63 5601   4.152   4.913   2.795
   14CHTO   C96 5602   4.275   4.995   2.723
   14CHTO  H183 5603   4.243   5.100   2.718
   14CHTO   C98 5604   4.307   4.950   2.578
   14CHTO  H185 5605   4.334   4.843   2.578
   14CHTO   O67 5606   4.186   4.959   2.502
   14CHTO  H167 5607   4.123   4.896   2.532
   14CHTO  C102 5608   4.423   5.038   2.511
   14CHTO  H189 5609   4.381   5.138   2.498
   14CHTO   N18 5610   4.467   4.995   2.376
   14CHTO  H176 5611   4.411   4.908   2.343
   14CHTO  H177 5612   4.455   5.075   2.305
   14CHTO  C105 5613   4.544   5.049   2.609
   14CHTO  H192 5614   4.602   4.957   2.606
   14CHTO   O65 5615   4.508   5.075   2.745
   14CHTO  C100 5616   4.409   4.991   2.807
   14CHTO  H187 5617   4.448   4.888   2.811
   14CHTO  C107 5618   4.395   5.045   2.951
   14CHTO   O70 5619   4.323   4.957   3.037
   14CHTO  H170 5620   4.317   4.994   3.123
   14CHTO   O57 5621   4.637   5.179   2.553
   14CHTO   C85 5622   4.593   5.312   2.585
   14CHTO  H157 5623   4.496   5.301   2.639
   14CHTO   C83 5624   4.558   5.393   2.457
   14CHTO  H155 5625   4.485   5.335   2.400
   14CHTO   O56 5626   4.674   5.404   2.372
   14CHTO  H135 5627   4.741   5.455   2.414
   14CHTO   C81 5628   4.494   5.528   2.500
   14CHTO  H153 5629   4.406   5.505   2.559
   14CHTO   N14 5630   4.441   5.607   2.386
   14CHTO  H141 5631   4.334   5.608   2.387
   14CHTO  H142 5632   4.475   5.567   2.292
   14CHTO   C79 5633   4.593   5.611   2.591
   14CHTO  H151 5634   4.535   5.692   2.636
   14CHTO   O52 5635   4.643   5.531   2.703
   14CHTO   C86 5636   4.695   5.399   2.668
   14CHTO  H158 5637   4.787   5.421   2.608
   14CHTO   C90 5638   4.745   5.324   2.795
   14CHTO   O60 5639   4.641   5.309   2.892
   14CHTO  H138 5640   4.619   5.392   2.929
   14CHTO   O50 5641   4.706   5.670   2.522
   14CHTO   C73 5642   4.748   5.805   2.547
   14CHTO  H145 5643   4.706   5.841   2.643
   14CHTO   C74 5644   4.700   5.901   2.434
   14CHTO  H146 5645   4.590   5.891   2.427
   14CHTO   O54 5646   4.727   6.036   2.474
   14CHTO  H133 5647   4.672   6.060   2.547
   14CHTO   C75 5648   4.770   5.861   2.298
   14CHTO  H147 5649   4.740   5.758   2.272
   14CHTO   N13 5650   4.732   5.945   2.182
   14CHTO  H139 5651   4.783   5.912   2.093
   14CHTO  H140 5652   4.625   5.938   2.166
   14CHTO   C76 5653   4.929   5.859   2.319
   14CHTO  H148 5654   4.962   5.961   2.339
   14CHTO   O49 5655   4.966   5.774   2.432
   14CHTO   C77 5656   4.904   5.812   2.556
   14CHTO  H149 5657   4.933   5.915   2.581
   14CHTO   C88 5658   4.958   5.725   2.670
   14CHTO   O58 5659   5.099   5.751   2.693
   14CHTO  H136 5660   5.129   5.699   2.765
   14CHTO   O51 5661   5.002   5.794   2.194
   14CHTO   C78 5662   5.146   5.850   2.175
   14CHTO  H150 5663   5.180   5.907   2.264
   14CHTO   C80 5664   5.152   5.942   2.051
   14CHTO  H152 5665   5.112   5.886   1.964
   14CHTO   O55 5666   5.065   6.054   2.076
   14CHTO  H134 5667   5.098   6.106   2.147
   14CHTO   C84 5668   5.300   5.988   2.020
   14CHTO  H156 5669   5.333   6.052   2.101
   14CHTO   N15 5670   5.310   6.069   1.893
   14CHTO  H143 5671   5.352   6.165   1.914
   14CHTO  H144 5672   5.369   6.020   1.819
   14CHTO   C87 5673   5.395   5.865   2.017
   14CHTO  H159 5674   5.372   5.804   1.929
   14CHTO   O53 5675   5.377   5.781   2.145
   14CHTO   C82 5676   5.243   5.731   2.158
   14CHTO  H154 5677   5.217   5.672   2.070
   14CHTO   C89 5678   5.237   5.635   2.280
   14CHTO   O59 5679   5.275   5.698   2.403
   14CHTO  H137 5680   5.211   5.762   2.427
   14CHTO   O45 5681   5.550   5.914   2.011
   14CHTO   C67 5682   5.645   5.806   1.999
   14CHTO  H124 5683   5.619   5.724   2.067
   14CHTO   C65 5684   5.648   5.753   1.852
   14CHTO  H122 5685   5.544   5.742   1.821
   14CHTO   O44 5686   5.710   5.623   1.848
   14CHTO  H102 5687   5.801   5.630   1.868
   14CHTO   C63 5688   5.709   5.863   1.759
   14CHTO  H120 5689   5.655   5.956   1.776
   14CHTO   N11 5690   5.691   5.842   1.611
   14CHTO  H108 5691   5.624   5.915   1.571
   14CHTO  H109 5692   5.654   5.744   1.591
   14CHTO   C61 5693   5.857   5.889   1.804
   14CHTO  H118 5694   5.895   5.972   1.743
   14CHTO   O40 5695   5.861   5.934   1.942
   14CHTO   C68 5696   5.787   5.859   2.045
   14CHTO  H125 5697   5.769   5.932   2.128
   14CHTO   C72 5698   5.877   5.748   2.104
   14CHTO   O48 5699   5.995   5.798   2.167
   14CHTO  H105 5700   6.052   5.835   2.102
   14CHTO   O38 5701   5.945   5.774   1.793
   14CHTO   C55 5702   6.053   5.779   1.698
   14CHTO  H112 5703   6.048   5.871   1.638
   14CHTO   C56 5704   6.051   5.649   1.607
   14CHTO  H113 5705   6.056   5.562   1.674
   14CHTO   O42 5706   5.925   5.639   1.538
   14CHTO  H100 5707   5.912   5.713   1.481
   14CHTO   C57 5708   6.173   5.650   1.507
   14CHTO  H114 5709   6.158   5.734   1.439
   14CHTO   N10 5710   6.181   5.527   1.424
   14CHTO  H106 5711   6.239   5.451   1.475
   14CHTO  H107 5712   6.227   5.549   1.329
   14CHTO   C58 5713   6.305   5.674   1.585
   14CHTO  H115 5714   6.328   5.583   1.646
   14CHTO   O37 5715   6.296   5.789   1.670
   14CHTO   C59 5716   6.192   5.784   1.770
   14CHTO  H116 5717   6.205   5.696   1.833
   14CHTO   C70 5718   6.204   5.908   1.858
   14CHTO   O46 5719   6.326   5.912   1.933
   14CHTO  H103 5720   6.399   5.923   1.875
   14CHTO   O39 5721   6.428   5.707   1.480
   14CHTO   C60 5722   6.563   5.663   1.508
   14CHTO  H117 5723   6.627   5.713   1.436
   14CHTO   C62 5724   6.620   5.703   1.648
   14CHTO  H119 5725   6.608   5.814   1.654
   14CHTO   O43 5726   6.544   5.645   1.756
   14CHTO  H101 5727   6.548   5.551   1.752
   14CHTO   C66 5728   6.776   5.666   1.654
   14CHTO  H123 5729   6.826   5.712   1.569
   14CHTO   N12 5730   6.843   5.719   1.775
   14CHTO  H110 5731   6.926   5.782   1.748
   14CHTO  H111 5732   6.875   5.639   1.841
   14CHTO   C69 5733   6.791   5.512   1.637
   14CHTO  H126 5734   6.744   5.458   1.722
   14CHTO   O41 5735   6.725   5.468   1.505
   14CHTO   C64 5736   6.580   5.510   1.484
   14CHTO  H121 5737   6.513   5.454   1.553
   14CHTO   C71 5738   6.541   5.473   1.339
   14CHTO   O47 5739   6.558   5.334   1.312
   14CHTO  H104 5740   6.494   5.284   1.359
   14CHTO   O34 5741   6.937   5.472   1.631
   14CHTO   C49 5742   7.037   5.371   1.589
   14CHTO   H91 5743   7.036   5.290   1.663
   14CHTO   C47 5744   7.175   5.441   1.588
   14CHTO   H89 5745   7.249   5.360   1.566
   14CHTO   O33 5746   7.206   5.495   1.718
   14CHTO   H70 5747   7.214   5.426   1.780
   14CHTO   C45 5748   7.179   5.558   1.475
   14CHTO   H87 5749   7.146   5.652   1.522
   14CHTO    N8 5750   7.319   5.575   1.430
   14CHTO   H75 5751   7.325   5.656   1.359
   14CHTO   H76 5752   7.383   5.597   1.515
   14CHTO   C43 5753   7.070   5.529   1.358
   14CHTO   H85 5754   6.977   5.569   1.397
   14CHTO   O29 5755   7.061   5.388   1.333
   14CHTO   C50 5756   7.011   5.312   1.446
   14CHTO   H92 5757   6.902   5.303   1.433
   14CHTO   C54 5758   7.059   5.166   1.433
   14CHTO   O36 5759   7.202   5.156   1.426
   14CHTO   H72 5760   7.226   5.067   1.412
   14CHTO   O27 5761   7.093   5.603   1.237
   14CHTO   C37 5762   7.011   5.692   1.159
   14CHTO   H79 5763   7.062   5.716   1.065
   14CHTO   C38 5764   6.875   5.625   1.121
   14CHTO   H80 5765   6.833   5.578   1.211
   14CHTO   O31 5766   6.905   5.521   1.025
   14CHTO   H68 5767   6.951   5.451   1.066
   14CHTO   C39 5768   6.772   5.729   1.063
   14CHTO   H81 5769   6.813   5.769   0.970
   14CHTO    N7 5770   6.638   5.669   1.031
   14CHTO   H73 5771   6.650   5.591   0.958
   14CHTO   H74 5772   6.572   5.746   0.992
   14CHTO   C40 5773   6.761   5.850   1.164
   14CHTO   H82 5774   6.725   5.814   1.261
   14CHTO   O26 5775   6.892   5.909   1.175
   14CHTO   C41 5776   6.990   5.823   1.239
   14CHTO   H83 5777   6.957   5.800   1.342
   14CHTO   C52 5778   7.124   5.901   1.248
   14CHTO   O35 5779   7.113   6.021   1.325
   14CHTO   H71 5780   7.195   6.066   1.324
   14CHTO   O28 5781   6.675   5.956   1.120
   14CHTO   C42 5782   6.605   6.046   1.212
   14CHTO   H84 5783   6.575   6.129   1.149
   14CHTO   C44 5784   6.686   6.108   1.330
   14CHTO   H86 5785   6.709   6.030   1.403
   14CHTO   O32 5786   6.810   6.158   1.276
   14CHTO   H69 5787   6.794   6.228   1.216
   14CHTO   C48 5788   6.600   6.220   1.402
   14CHTO   H90 5789   6.576   6.297   1.327
   14CHTO    N9 5790   6.674   6.292   1.511
   14CHTO   H77 5791   6.706   6.221   1.586
   14CHTO   H78 5792   6.760   6.343   1.470
   14CHTO   C51 5793   6.464   6.159   1.452
   14CHTO   H93 5794   6.485   6.089   1.534
   14CHTO   O30 5795   6.395   6.094   1.344
   14CHTO   C46 5796   6.473   5.985   1.270
   14CHTO   H88 5797   6.498   5.906   1.340
   14CHTO   C53 5798   6.381   5.930   1.158
   14CHTO   O72 5799   6.265   5.868   1.214
   14CHTO  H199 5800   6.210   5.836   1.145
   14CHTO   O22 5801   6.371   6.261   1.493
   14CHTO   C31 5802   6.288   6.252   1.615
   14CHTO   H59 5803   6.319   6.159   1.667
   14CHTO   C29 5804   6.313   6.370   1.712
   14CHTO   H57 5805   6.296   6.462   1.654
   14CHTO   O21 5806   6.451   6.369   1.749
   14CHTO   H37 5807   6.471   6.294   1.802
   14CHTO   C27 5808   6.216   6.369   1.837
   14CHTO   H55 5809   6.242   6.283   1.900
   14CHTO    N5 5810   6.229   6.492   1.919
   14CHTO   H43 5811   6.331   6.502   1.955
   14CHTO   H44 5812   6.203   6.579   1.861
   14CHTO   C25 5813   6.069   6.349   1.788
   14CHTO   H53 5814   6.039   6.435   1.726
   14CHTO   O17 5815   6.060   6.228   1.706
   14CHTO   C32 5816   6.136   6.237   1.584
   14CHTO   H60 5817   6.103   6.324   1.527
   14CHTO   C36 5818   6.106   6.112   1.499
   14CHTO   O25 5819   5.968   6.107   1.461
   14CHTO   H40 5820   5.952   6.030   1.410
   14CHTO   O15 5821   5.966   6.337   1.906
   14CHTO   C19 5822   5.914   6.262   2.019
   14CHTO   H47 5823   5.892   6.164   1.976
   14CHTO   C20 5824   6.016   6.243   2.136
   14CHTO   H48 5825   6.057   6.339   2.170
   14CHTO   O19 5826   6.124   6.164   2.084
   14CHTO   H35 5827   6.175   6.214   2.023
   14CHTO   C21 5828   5.951   6.170   2.261
   14CHTO   H49 5829   5.931   6.067   2.234
   14CHTO    N4 5830   6.044   6.167   2.377
   14CHTO   H41 5831   5.997   6.117   2.461
   14CHTO   H42 5832   6.134   6.114   2.351
   14CHTO   C22 5833   5.815   6.236   2.295
   14CHTO   H50 5834   5.833   6.339   2.328
   14CHTO   O14 5835   5.729   6.236   2.180
   14CHTO   C23 5836   5.779   6.318   2.073
   14CHTO   H51 5837   5.789   6.421   2.112
   14CHTO   C34 5838   5.673   6.325   1.962
   14CHTO   O23 5839   5.641   6.196   1.908
   14CHTO   H38 5840   5.577   6.205   1.840
   14CHTO   O16 5841   5.744   6.163   2.398
   14CHTO   C24 5842   5.609   6.234   2.453
   14CHTO   H52 5843   5.563   6.297   2.377
   14CHTO   C26 5844   5.642   6.319   2.578
   14CHTO   H54 5845   5.695   6.254   2.652
   14CHTO   O20 5846   5.734   6.424   2.540
   14CHTO   H36 5847   5.694   6.482   2.478
   14CHTO   C30 5848   5.513   6.376   2.644
   14CHTO   H58 5849   5.467   6.451   2.577
   14CHTO    N6 5850   5.543   6.448   2.771
   14CHTO   H45 5851   5.609   6.532   2.752
   14CHTO   H46 5852   5.590   6.381   2.842
   14CHTO   C33 5853   5.406   6.264   2.664
   14CHTO   H61 5854   5.442   6.193   2.740
   14CHTO   O18 5855   5.388   6.192   2.540
   14CHTO   C28 5856   5.505   6.126   2.491
   14CHTO   H56 5857   5.548   6.060   2.567
   14CHTO   C35 5858   5.463   6.041   2.369
   14CHTO   O24 5859   5.566   5.952   2.323
   14CHTO   H39 5860   5.636   6.001   2.286
   14CHTO    O9 5861   5.281   6.315   2.714
   14CHTO   C13 5862   5.188   6.202   2.784
   14CHTO   H26 5863   5.206   6.105   2.732
   14CHTO   C11 5864   5.035   6.243   2.778
   14CHTO   H24 5865   5.006   6.247   2.672
   14CHTO    O8 5866   5.015   6.375   2.832
   14CHTO    H3 5867   5.037   6.377   2.923
   14CHTO    C9 5868   4.952   6.132   2.848
   14CHTO   H22 5869   4.977   6.039   2.794
   14CHTO    N2 5870   4.806   6.148   2.830
   14CHTO   H10 5871   4.782   6.157   2.725
   14CHTO   H11 5872   4.754   6.063   2.873
   14CHTO    C7 5873   4.999   6.115   2.998
   14CHTO   H20 5874   4.948   6.021   3.030
   14CHTO    O4 5875   5.141   6.096   3.009
   14CHTO   C14 5876   5.233   6.178   2.934
   14CHTO   H27 5877   5.327   6.122   2.930
   14CHTO   C18 5878   5.263   6.310   3.010
   14CHTO   O13 5879   5.341   6.284   3.128
   14CHTO    H7 5880   5.359   6.364   3.172
   14CHTO    O2 5881   4.952   6.239   3.100
   14CHTO    C1 5882   4.901   6.191   3.226
   14CHTO   H14 5883   4.946   6.092   3.249
   14CHTO    C2 5884   4.743   6.175   3.226
   14CHTO   H15 5885   4.703   6.273   3.194
   14CHTO    O6 5886   4.704   6.075   3.131
   14CHTO    H1 5887   4.740   5.991   3.154
   14CHTO    C3 5888   4.688   6.138   3.372
   14CHTO   H16 5889   4.720   6.036   3.397
   14CHTO    N1 5890   4.538   6.140   3.379
   14CHTO    H8 5891   4.497   6.067   3.310
   14CHTO    H9 5892   4.500   6.238   3.355
   14CHTO    C4 5893   4.753   6.231   3.481
   14CHTO   H17 5894   4.712   6.331   3.472
   14CHTO    O1 5895   4.896   6.235   3.469
   14CHTO    C5 5896   4.942   6.286   3.342
   14CHTO   H18 5897   4.897   6.383   3.324
   14CHTO   C16 5898   5.096   6.305   3.354
   14CHTO   O11 5899   5.165   6.182   3.379
   14CHTO    H5 5900   5.160   6.126   3.304
   14CHTO    O3 5901   4.729   6.177   3.613
   14CHTO    C6 5902   4.715   6.274   3.721
   14CHTO   H19 5903   4.771   6.366   3.703
   14CHTO    C8 5904   4.564   6.311   3.742
   14CHTO   H21 5905   4.506   6.218   3.745
   14CHTO    O7 5906   4.523   6.390   3.629
   14CHTO    H2 5907   4.523   6.338   3.551
   14CHTO   C12 5908   4.542   6.388   3.878
   14CHTO   H25 5909   4.591   6.488   3.866
   14CHTO    N3 5910   4.396   6.414   3.903
   14CHTO   H12 5911   4.343   6.321   3.910
   14CHTO   H13 5912   4.384   6.471   3.994
   14CHTO   C15 5913   4.614   6.312   3.995
   14CHTO   H28 5914   4.566   6.216   4.016
   14CHTO   O10 5915   4.621   6.392   4.121
   14CHTO    H4 5916   4.535   6.405   4.156
   14CHTO    O5 5917   4.753   6.293   3.965
   14CHTO   C10 5918   4.776   6.210   3.850
   14CHTO   H23 5919   4.730   6.113   3.868
   14CHTO   C17 5920   4.927   6.187   3.836
   14CHTO   O12 5921   4.999   6.310   3.819
   14CHTO    H6 5922   4.979   6.347   3.735
   15CHTO  H203 5923   5.953   5.169   2.766
   15CHTO   O82 5924   5.867   5.149   2.735
   15CHTO  C123 5925   5.874   5.048   2.632
   15CHTO  H227 5926   5.922   4.958   2.674
   15CHTO   O77 5927   5.735   5.021   2.602
   15CHTO  C118 5928   5.714   4.912   2.510
   15CHTO  H222 5929   5.760   4.820   2.551
   15CHTO  C125 5930   5.559   4.890   2.497
   15CHTO   O84 5931   5.500   4.858   2.624
   15CHTO  H205 5932   5.531   4.774   2.653
   15CHTO  C114 5933   5.777   4.947   2.373
   15CHTO  H218 5934   5.725   5.034   2.333
   15CHTO  C116 5935   5.927   4.990   2.387
   15CHTO  H220 5936   5.989   4.900   2.409
   15CHTO   O79 5937   5.970   5.039   2.258
   15CHTO  H201 5938   6.062   5.058   2.260
   15CHTO  C120 5939   5.947   5.097   2.501
   15CHTO  H224 5940   5.900   5.191   2.465
   15CHTO   N21 5941   6.091   5.126   2.525
   15CHTO  H211 5942   6.132   5.058   2.598
   15CHTO  H212 5943   6.104   5.228   2.557
   15CHTO   O75 5944   5.750   4.834   2.287
   15CHTO  C112 5945   5.852   4.700   2.303
   15CHTO  H216 5946   5.882   4.692   2.409
   15CHTO   O73 5947   5.965   4.721   2.217
   15CHTO  C113 5948   6.064   4.618   2.226
   15CHTO  H217 5949   6.096   4.609   2.332
   15CHTO  C124 5950   6.188   4.659   2.145
   15CHTO   O83 5951   6.160   4.675   2.006
   15CHTO  H204 5952   6.239   4.700   1.961
   15CHTO  C109 5953   6.006   4.483   2.177
   15CHTO  H213 5954   5.980   4.496   2.071
   15CHTO  C110 5955   5.878   4.448   2.258
   15CHTO  H214 5956   5.908   4.423   2.360
   15CHTO   O78 5957   5.819   4.329   2.201
   15CHTO  H200 5958   5.747   4.300   2.253
   15CHTO  C111 5959   5.778   4.567   2.260
   15CHTO  H215 5960   5.739   4.582   2.158
   15CHTO   N19 5961   5.660   4.543   2.347
   15CHTO  H207 5962   5.592   4.627   2.343
   15CHTO  H208 5963   5.691   4.527   2.449
   15CHTO   O74 5964   6.109   4.380   2.189
   15CHTO  C115 5965   6.114   4.275   2.066
   15CHTO  H219 5966   6.025   4.211   2.064
   15CHTO   O76 5967   6.115   4.351   1.919
   15CHTO  C122 5968   6.245   4.360   1.858
   15CHTO  H226 5969   6.307   4.424   1.922
   15CHTO  C126 5970   6.235   4.433   1.720
   15CHTO   O85 5971   6.201   4.572   1.732
   15CHTO  H206 5972   6.195   4.610   1.647
   15CHTO  C121 5973   6.315   4.218   1.841
   15CHTO  H225 5974   6.293   4.179   1.739
   15CHTO   O81 5975   6.457   4.236   1.852
   15CHTO  H202 5976   6.489   4.288   1.781
   15CHTO  C119 5977   6.267   4.114   1.946
   15CHTO  H223 5978   6.170   4.079   1.910
   15CHTO  C117 5979   6.241   4.184   2.084
   15CHTO  H221 5980   6.320   4.250   2.117
   15CHTO   N20 5981   6.220   4.088   2.197
   15CHTO  H209 5982   6.308   4.027   2.211
   15CHTO  H210 5983   6.135   4.025   2.177
   15CHTO   O80 5984   6.355   3.975   1.942
   15CHTO  C103 5985   6.284   3.837   1.905
   15CHTO  H190 5986   6.357   3.756   1.908
   15CHTO  C101 5987   6.162   3.797   1.998
   15CHTO  H188 5988   6.098   3.884   2.010
   15CHTO   O68 5989   6.218   3.757   2.138
   15CHTO  H168 5990   6.147   3.743   2.198
   15CHTO   C99 5991   6.075   3.679   1.935
   15CHTO  H186 5992   6.134   3.585   1.939
   15CHTO   N17 5993   5.947   3.653   2.011
   15CHTO  H174 5994   5.970   3.631   2.114
   15CHTO  H175 5995   5.882   3.738   2.003
   15CHTO   C97 5996   6.047   3.706   1.785
   15CHTO  H184 5997   5.975   3.789   1.777
   15CHTO   O64 5998   6.169   3.732   1.713
   15CHTO  C104 5999   6.236   3.852   1.756
   15CHTO  H191 6000   6.170   3.938   1.747
   15CHTO  C108 6001   6.355   3.879   1.663
   15CHTO   O71 6002   6.312   3.904   1.528
   15CHTO  H171 6003   6.280   3.824   1.490
   15CHTO   O62 6004   5.996   3.588   1.719
   15CHTO   C91 6005   5.900   3.610   1.615
   15CHTO  H178 6006   5.901   3.716   1.588
   15CHTO   C92 6007   5.757   3.582   1.673
   15CHTO  H179 6008   5.745   3.633   1.770
   15CHTO   O66 6009   5.661   3.644   1.586
   15CHTO  H166 6010   5.575   3.640   1.623
   15CHTO   C93 6011   5.722   3.428   1.681
   15CHTO  H180 6012   5.613   3.421   1.687
   15CHTO   N16 6013   5.770   3.364   1.806
   15CHTO  H172 6014   5.878   3.371   1.812
   15CHTO  H173 6015   5.739   3.261   1.809
   15CHTO   C94 6016   5.772   3.352   1.551
   15CHTO  H181 6017   5.858   3.288   1.572
   15CHTO   O61 6018   5.814   3.442   1.447
   15CHTO   C95 6019   5.926   3.524   1.484
   15CHTO  H182 6020   6.012   3.459   1.503
   15CHTO  C106 6021   5.969   3.616   1.364
   15CHTO   O69 6022   5.864   3.705   1.325
   15CHTO  H169 6023   5.894   3.758   1.253
   15CHTO   O63 6024   5.651   3.264   1.499
   15CHTO   C96 6025   5.695   3.142   1.410
   15CHTO  H183 6026   5.802   3.151   1.389
   15CHTO   C98 6027   5.620   3.135   1.274
   15CHTO  H185 6028   5.512   3.144   1.291
   15CHTO   O67 6029   5.656   3.252   1.198
   15CHTO  H167 6030   5.747   3.251   1.176
   15CHTO  C102 6031   5.652   3.000   1.192
   15CHTO  H189 6032   5.758   3.005   1.165
   15CHTO   N18 6033   5.579   2.985   1.063
   15CHTO  H176 6034   5.514   2.899   1.064
   15CHTO  H177 6035   5.521   3.074   1.041
   15CHTO  C105 6036   5.632   2.879   1.287
   15CHTO  H192 6037   5.525   2.869   1.311
   15CHTO   O65 6038   5.705   2.893   1.409
   15CHTO  C100 6039   5.672   3.008   1.489
   15CHTO  H187 6040   5.565   3.001   1.516
   15CHTO  C107 6041   5.754   2.999   1.620
   15CHTO   O70 6042   5.895   2.988   1.593
   15CHTO  H170 6043   5.927   3.068   1.556
   15CHTO   O57 6044   5.684   2.745   1.211
   15CHTO   C85 6045   5.663   2.617   1.275
   15CHTO  H157 6046   5.580   2.631   1.347
   15CHTO   C83 6047   5.788   2.578   1.360
   15CHTO  H155 6048   5.802   2.653   1.438
   15CHTO   O56 6049   5.906   2.582   1.277
   15CHTO  H135 6050   5.922   2.670   1.248
   15CHTO   C81 6051   5.764   2.439   1.427
   15CHTO  H153 6052   5.675   2.447   1.489
   15CHTO   N14 6053   5.870   2.401   1.524
   15CHTO  H141 6054   5.909   2.303   1.502
   15CHTO  H142 6055   5.951   2.471   1.522
   15CHTO   C79 6056   5.736   2.330   1.317
   15CHTO  H151 6057   5.709   2.238   1.369
   15CHTO   O52 6058   5.621   2.369   1.235
   15CHTO   C86 6059   5.634   2.501   1.173
   15CHTO  H158 6060   5.717   2.490   1.102
   15CHTO   C90 6061   5.509   2.533   1.088
   15CHTO   O60 6062   5.504   2.448   0.972
   15CHTO  H138 6063   5.573   2.471   0.913
   15CHTO   O50 6064   5.849   2.299   1.233
   15CHTO   C73 6065   5.853   2.196   1.133
   15CHTO  H145 6066   5.755   2.188   1.083
   15CHTO   C74 6067   5.888   2.057   1.196
   15CHTO  H146 6068   5.813   2.037   1.274
   15CHTO   O54 6069   5.869   1.955   1.096
   15CHTO  H133 6070   5.929   1.968   1.025
   15CHTO   C75 6071   6.034   2.062   1.255
   15CHTO  H147 6072   6.038   2.141   1.332
   15CHTO   N13 6073   6.076   1.937   1.322
   15CHTO  H139 6074   6.176   1.948   1.362
   15CHTO  H140 6075   6.009   1.915   1.404
   15CHTO   C76 6076   6.134   2.105   1.137
   15CHTO  H148 6077   6.130   2.027   1.061
   15CHTO   O49 6078   6.093   2.233   1.079
   15CHTO   C77 6079   5.960   2.232   1.024
   15CHTO  H149 6080   5.954   2.159   0.943
   15CHTO   C88 6081   5.934   2.369   0.961
   15CHTO   O58 6082   5.807   2.369   0.887
   15CHTO  H136 6083   5.793   2.454   0.850
   15CHTO   O51 6084   6.279   2.129   1.191
   15CHTO   C78 6085   6.386   2.120   1.077
   15CHTO  H150 6086   6.339   2.134   0.977
   15CHTO   C80 6087   6.456   1.983   1.081
   15CHTO  H152 6088   6.486   1.961   1.185
   15CHTO   O55 6089   6.358   1.885   1.041
   15CHTO  H134 6090   6.393   1.799   1.051
   15CHTO   C84 6091   6.584   1.977   0.987
   15CHTO  H156 6092   6.549   1.978   0.884
   15CHTO   N15 6093   6.662   1.850   1.004
   15CHTO  H143 6094   6.699   1.843   1.104
   15CHTO  H144 6095   6.745   1.849   0.936
   15CHTO   C87 6096   6.672   2.103   1.005
   15CHTO  H159 6097   6.723   2.100   1.102
   15CHTO   O53 6098   6.585   2.229   0.994
   15CHTO   C82 6099   6.486   2.235   1.097
   15CHTO  H154 6100   6.533   2.228   1.195
   15CHTO   C89 6101   6.416   2.374   1.091
   15CHTO   O59 6102   6.355   2.400   0.964
   15CHTO  H137 6103   6.313   2.484   0.967
   15CHTO   O45 6104   6.783   2.113   0.887
   15CHTO   C67 6105   6.876   2.219   0.909
   15CHTO  H124 6106   6.835   2.288   0.984
   15CHTO   C65 6107   7.012   2.164   0.963
   15CHTO  H122 6108   7.026   2.067   0.915
   15CHTO   O44 6109   6.994   2.146   1.104
   15CHTO  H102 6110   7.068   2.101   1.140
   15CHTO   C63 6111   7.136   2.250   0.915
   15CHTO  H120 6112   7.161   2.220   0.813
   15CHTO   N11 6113   7.266   2.223   0.985
   15CHTO  H108 6114   7.260   2.258   1.086
   15CHTO  H109 6115   7.346   2.273   0.935
   15CHTO   C61 6116   7.095   2.402   0.906
   15CHTO  H118 6117   7.182   2.456   0.865
   15CHTO   O40 6118   6.984   2.422   0.812
   15CHTO   C68 6119   6.898   2.308   0.781
   15CHTO  H125 6120   6.947   2.247   0.701
   15CHTO   C72 6121   6.764   2.359   0.722
   15CHTO   O48 6122   6.780   2.428   0.598
   15CHTO  H105 6123   6.803   2.367   0.530
   15CHTO   O38 6124   7.063   2.454   1.037
   15CHTO   C55 6125   7.015   2.590   1.048
   15CHTO  H112 6126   6.954   2.615   0.960
   15CHTO   C56 6127   7.134   2.693   1.068
   15CHTO  H113 6128   7.192   2.660   1.156
   15CHTO   O42 6129   7.223   2.688   0.956
   15CHTO  H100 6130   7.264   2.603   0.950
   15CHTO   C57 6131   7.077   2.838   1.091
   15CHTO  H114 6132   7.029   2.867   0.997
   15CHTO   N10 6133   7.181   2.940   1.120
   15CHTO  H106 6134   7.149   3.038   1.086
   15CHTO  H107 6135   7.202   2.945   1.226
   15CHTO   C58 6136   6.969   2.836   1.203
   15CHTO  H115 6137   7.019   2.815   1.301
   15CHTO   O37 6138   6.869   2.736   1.178
   15CHTO   C59 6139   6.919   2.601   1.170
   15CHTO  H116 6140   6.971   2.576   1.262
   15CHTO   C70 6141   6.799   2.507   1.158
   15CHTO   O46 6142   6.717   2.532   1.043
   15CHTO  H103 6143   6.764   2.509   0.965
   15CHTO   O39 6144   6.890   2.974   1.208
   15CHTO   C60 6145   6.809   2.990   1.326
   15CHTO  H117 6146   6.786   2.893   1.370
   15CHTO   C62 6147   6.882   3.075   1.434
   15CHTO  H119 6148   6.973   3.017   1.462
   15CHTO   O43 6149   6.925   3.200   1.376
   15CHTO  H101 6150   6.851   3.252   1.351
   15CHTO   C66 6151   6.787   3.092   1.562
   15CHTO  H123 6152   6.758   2.993   1.597
   15CHTO   N12 6153   6.857   3.157   1.676
   15CHTO  H110 6154   6.790   3.165   1.760
   15CHTO  H111 6155   6.945   3.099   1.703
   15CHTO   C69 6156   6.659   3.167   1.519
   15CHTO  H126 6157   6.686   3.267   1.479
   15CHTO   O41 6158   6.587   3.082   1.407
   15CHTO   C64 6159   6.674   3.055   1.285
   15CHTO  H121 6160   6.696   3.150   1.234
   15CHTO   C71 6161   6.595   2.965   1.186
   15CHTO   O47 6162   6.561   2.838   1.242
   15CHTO  H104 6163   6.496   2.850   1.309
   15CHTO   O34 6164   6.558   3.187   1.639
   15CHTO   C49 6165   6.465   3.309   1.658
   15CHTO   H91 6166   6.526   3.389   1.700
   15CHTO   C47 6167   6.352   3.271   1.756
   15CHTO   H89 6168   6.298   3.367   1.775
   15CHTO   O33 6169   6.406   3.225   1.880
   15CHTO   H70 6170   6.337   3.215   1.944
   15CHTO   C45 6171   6.252   3.160   1.691
   15CHTO   H87 6172   6.285   3.061   1.726
   15CHTO    N8 6173   6.114   3.184   1.742
   15CHTO   H75 6174   6.107   3.276   1.798
   15CHTO   H76 6175   6.083   3.101   1.804
   15CHTO   C43 6176   6.268   3.155   1.531
   15CHTO   H85 6177   6.357   3.095   1.513
   15CHTO   O29 6178   6.282   3.288   1.479
   15CHTO   C50 6179   6.399   3.359   1.525
   15CHTO   H92 6180   6.475   3.355   1.446
   15CHTO   C54 6181   6.363   3.510   1.533
   15CHTO   O36 6182   6.330   3.564   1.404
   15CHTO   H72 6183   6.406   3.565   1.349
   15CHTO   O27 6184   6.164   3.083   1.461
   15CHTO   C37 6185   6.177   3.047   1.322
   15CHTO   H79 6186   6.273   3.085   1.282
   15CHTO   C38 6187   6.178   2.893   1.302
   15CHTO   H80 6188   6.085   2.851   1.347
   15CHTO   O31 6189   6.291   2.841   1.374
   15CHTO   H68 6190   6.278   2.848   1.466
   15CHTO   C39 6191   6.183   2.856   1.149
   15CHTO   H81 6192   6.279   2.891   1.112
   15CHTO    N7 6193   6.178   2.707   1.123
   15CHTO   H73 6194   6.265   2.676   1.067
   15CHTO   H74 6195   6.088   2.680   1.070
   15CHTO   C40 6196   6.070   2.933   1.069
   15CHTO   H82 6197   5.973   2.892   1.098
   15CHTO   O26 6198   6.079   3.074   1.098
   15CHTO   C41 6199   6.061   3.108   1.239
   15CHTO   H83 6200   5.965   3.068   1.275
   15CHTO   C52 6201   6.056   3.262   1.247
   15CHTO   O35 6202   5.945   3.320   1.169
   15CHTO   H71 6203   5.960   3.307   1.078
   15CHTO   O28 6204   6.078   2.918   0.926
   15CHTO   C42 6205   6.156   2.999   0.830
   15CHTO   H84 6206   6.146   2.943   0.737
   15CHTO   C44 6207   6.309   3.009   0.857
   15CHTO   H86 6208   6.324   3.060   0.953
   15CHTO   O32 6209   6.359   2.874   0.868
   15CHTO   H69 6210   6.449   2.875   0.893
   15CHTO   C48 6211   6.385   3.091   0.745
   15CHTO   H90 6212   6.383   3.031   0.653
   15CHTO    N9 6213   6.531   3.108   0.777
   15CHTO   H77 6214   6.581   3.160   0.697
   15CHTO   H78 6215   6.542   3.162   0.870
   15CHTO   C51 6216   6.313   3.228   0.716
   15CHTO   H93 6217   6.326   3.294   0.802
   15CHTO   O30 6218   6.175   3.204   0.687
   15CHTO   C46 6219   6.099   3.142   0.804
   15CHTO   H88 6220   6.113   3.205   0.892
   15CHTO   C53 6221   5.949   3.140   0.763
   15CHTO   O72 6222   5.865   3.111   0.875
   15CHTO  H199 6223   5.775   3.114   0.849
   15CHTO   O22 6224   6.365   3.290   0.596
   15CHTO   C31 6225   6.366   3.435   0.570
   15CHTO   H59 6226   6.395   3.446   0.464
   15CHTO   C29 6227   6.230   3.507   0.586
   15CHTO   H57 6228   6.199   3.497   0.691
   15CHTO   O21 6229   6.133   3.437   0.506
   15CHTO   H37 6230   6.047   3.472   0.522
   15CHTO   C27 6231   6.240   3.661   0.549
   15CHTO   H55 6232   6.260   3.669   0.441
   15CHTO    N5 6233   6.115   3.735   0.578
   15CHTO   H43 6234   6.032   3.691   0.524
   15CHTO   H44 6235   6.095   3.734   0.684
   15CHTO   C25 6236   6.363   3.727   0.621
   15CHTO   H53 6237   6.342   3.735   0.729
   15CHTO   O17 6238   6.484   3.648   0.604
   15CHTO   C32 6239   6.475   3.512   0.651
   15CHTO   H60 6240   6.448   3.511   0.756
   15CHTO   C36 6241   6.615   3.449   0.634
   15CHTO   O25 6242   6.711   3.515   0.718
   15CHTO   H40 6243   6.796   3.475   0.706
   15CHTO   O15 6244   6.394   3.868   0.564
   15CHTO   C19 6245   6.419   4.003   0.613
   15CHTO   H47 6246   6.478   4.050   0.532
   15CHTO   C20 6247   6.290   4.087   0.635
   15CHTO   H48 6248   6.223   4.040   0.709
   15CHTO   O19 6249   6.220   4.091   0.509
   15CHTO   H35 6250   6.138   4.134   0.519
   15CHTO   C21 6251   6.324   4.233   0.687
   15CHTO   H49 6252   6.379   4.285   0.609
   15CHTO    N4 6253   6.203   4.315   0.717
   15CHTO   H41 6254   6.202   4.404   0.655
   15CHTO   H42 6255   6.113   4.259   0.700
   15CHTO   C22 6256   6.419   4.222   0.809
   15CHTO   H50 6257   6.364   4.173   0.891
   15CHTO   O14 6258   6.536   4.145   0.776
   15CHTO   C23 6259   6.509   4.008   0.740
   15CHTO   H51 6260   6.460   3.961   0.827
   15CHTO   C34 6261   6.643   3.936   0.722
   15CHTO   O23 6262   6.724   3.993   0.619
   15CHTO   H38 6263   6.685   3.978   0.535
   15CHTO   O16 6264   6.470   4.349   0.851
   15CHTO   C24 6265   6.495   4.359   1.009
   15CHTO   H52 6266   6.493   4.260   1.057
   15CHTO   C26 6267   6.385   4.447   1.071
   15CHTO   H54 6268   6.382   4.544   1.015
   15CHTO   O20 6269   6.259   4.381   1.053
   15CHTO   H36 6270   6.189   4.437   1.081
   15CHTO   C30 6271   6.414   4.477   1.221
   15CHTO   H58 6272   6.403   4.385   1.281
   15CHTO    N6 6273   6.316   4.574   1.278
   15CHTO   H45 6274   6.319   4.667   1.222
   15CHTO   H46 6275   6.216   4.533   1.272
   15CHTO   C33 6276   6.561   4.525   1.241
   15CHTO   H61 6277   6.574   4.624   1.194
   15CHTO   O18 6278   6.653   4.434   1.177
   15CHTO   C28 6279   6.635   4.419   1.036
   15CHTO   H56 6280   6.641   4.517   0.987
   15CHTO   C35 6281   6.747   4.329   0.977
   15CHTO   O24 6282   6.750   4.198   1.034
   15CHTO   H39 6283   6.820   4.149   0.995
   15CHTO    O9 6284   6.593   4.546   1.380
   15CHTO   C13 6285   6.697   4.448   1.455
   15CHTO   H26 6286   6.793   4.452   1.399
   15CHTO   C11 6287   6.643   4.299   1.465
   15CHTO   H24 6288   6.620   4.263   1.364
   15CHTO    O8 6289   6.518   4.300   1.539
   15CHTO    H3 6290   6.481   4.214   1.541
   15CHTO    C9 6291   6.756   4.210   1.525
   15CHTO   H22 6292   6.829   4.198   1.443
   15CHTO    N2 6293   6.714   4.069   1.551
   15CHTO   H10 6294   6.607   4.060   1.547
   15CHTO   H11 6295   6.752   4.035   1.646
   15CHTO    C7 6296   6.832   4.286   1.643
   15CHTO   H20 6297   6.923   4.325   1.593
   15CHTO    O4 6298   6.755   4.396   1.695
   15CHTO   C14 6299   6.730   4.502   1.601
   15CHTO   H27 6300   6.820   4.566   1.595
   15CHTO   C18 6301   6.616   4.590   1.660
   15CHTO   O13 6302   6.656   4.653   1.781
   15CHTO    H7 6303   6.586   4.706   1.814
   15CHTO    O2 6304   6.876   4.192   1.768
   15CHTO    C1 6305   7.017   4.195   1.798
   15CHTO   H14 6306   7.063   4.288   1.756
   15CHTO    C2 6307   7.094   4.070   1.739
   15CHTO   H15 6308   7.035   3.981   1.768
   15CHTO    O6 6309   7.096   4.081   1.595
   15CHTO    H1 6310   7.009   4.073   1.561
   15CHTO    C3 6311   7.243   4.059   1.799
   15CHTO   H16 6312   7.303   4.143   1.761
   15CHTO    N1 6313   7.311   3.932   1.755
   15CHTO    H8 6314   7.317   3.929   1.648
   15CHTO    H9 6315   7.411   3.929   1.797
   15CHTO    C4 6316   7.238   4.076   1.955
   15CHTO   H17 6317   7.186   3.990   1.998
   15CHTO    O1 6318   7.172   4.199   1.990
   15CHTO    C5 6319   7.034   4.205   1.952
   15CHTO   H18 6320   6.978   4.124   1.999
   15CHTO   C16 6321   6.982   4.340   2.008
   15CHTO   O11 6322   6.840   4.356   1.995
   15CHTO    H5 6323   6.795   4.296   2.050
   15CHTO    O3 6324   7.371   4.088   2.011
   15CHTO    C6 6325   7.386   4.039   2.149
   15CHTO   H19 6326   7.291   4.020   2.199
   15CHTO    C8 6327   7.468   3.905   2.148
   15CHTO   H21 6328   7.558   3.920   2.088
   15CHTO    O7 6329   7.384   3.805   2.087
   15CHTO    H2 6330   7.374   3.822   1.996
   15CHTO   C12 6331   7.511   3.863   2.295
   15CHTO   H25 6332   7.418   3.837   2.349
   15CHTO    N3 6333   7.598   3.740   2.295
   15CHTO   H12 6334   7.551   3.661   2.351
   15CHTO   H13 6335   7.621   3.708   2.194
   15CHTO   C15 6336   7.578   3.986   2.367
   15CHTO   H28 6337   7.674   4.012   2.322
   15CHTO   O10 6338   7.597   3.963   2.519
   15CHTO    H4 6339   7.660   3.895   2.534
   15CHTO    O5 6340   7.490   4.099   2.366
   15CHTO   C10 6341   7.461   4.147   2.233
   15CHTO   H23 6342   7.555   4.173   2.184
   15CHTO   C17 6343   7.380   4.278   2.247
   15CHTO   O12 6344   7.255   4.258   2.313
   15CHTO    H6 6345   7.210   4.341   2.320
   16CHTO  H203 6346   5.500   3.706   0.570
   16CHTO   O82 6347   5.502   3.661   0.652
   16CHTO  C123 6348   5.623   3.691   0.723
   16CHTO  H227 6349   5.708   3.683   0.652
   16CHTO   O77 6350   5.605   3.831   0.763
   16CHTO  C118 6351   5.716   3.887   0.836
   16CHTO  H222 6352   5.807   3.877   0.775
   16CHTO  C125 6353   5.687   4.041   0.858
   16CHTO   O84 6354   5.568   4.064   0.934
   16CHTO  H205 6355   5.493   4.042   0.883
   16CHTO  C114 6356   5.733   3.810   0.969
   16CHTO  H218 6357   5.639   3.816   1.024
   16CHTO  C116 6358   5.757   3.658   0.941
   16CHTO  H220 6359   5.856   3.645   0.890
   16CHTO   O79 6360   5.765   3.590   1.067
   16CHTO  H201 6361   5.841   3.617   1.114
   16CHTO  C120 6362   5.643   3.599   0.849
   16CHTO  H224 6363   5.551   3.600   0.910
   16CHTO   N21 6364   5.670   3.458   0.812
   16CHTO  H211 6365   5.729   3.453   0.721
   16CHTO  H212 6366   5.577   3.404   0.799
   16CHTO   O75 6367   5.834   3.879   1.045
   16CHTO  C112 6368   5.994   3.865   0.995
   16CHTO  H216 6369   5.999   3.882   0.886
   16CHTO   O73 6370   6.040   3.734   1.032
   16CHTO  C113 6371   6.172   3.706   0.983
   16CHTO  H217 6372   6.175   3.724   0.874
   16CHTO  C124 6373   6.196   3.556   1.004
   16CHTO   O83 6374   6.105   3.474   0.931
   16CHTO  H204 6375   6.124   3.383   0.947
   16CHTO  C109 6376   6.275   3.797   1.056
   16CHTO  H213 6377   6.272   3.771   1.162
   16CHTO  C110 6378   6.234   3.947   1.035
   16CHTO  H214 6379   6.253   3.973   0.931
   16CHTO   O78 6380   6.320   4.030   1.116
   16CHTO  H200 6381   6.408   4.026   1.084
   16CHTO  C111 6382   6.084   3.972   1.068
   16CHTO  H215 6383   6.070   3.959   1.177
   16CHTO   N19 6384   6.038   4.109   1.035
   16CHTO  H207 6385   5.934   4.122   1.063
   16CHTO  H208 6386   6.050   4.128   0.930
   16CHTO   O74 6387   6.412   3.778   1.006
   16CHTO  C115 6388   6.501   3.665   1.087
   16CHTO  H219 6389   6.443   3.619   1.168
   16CHTO   O76 6390   6.543   3.547   0.993
   16CHTO  C122 6391   6.615   3.440   1.056
   16CHTO  H226 6392   6.650   3.374   0.977
   16CHTO  C126 6393   6.519   3.354   1.146
   16CHTO   O85 6394   6.415   3.290   1.071
   16CHTO  H206 6395   6.452   3.226   1.014
   16CHTO  C121 6396   6.741   3.492   1.137
   16CHTO  H225 6397   6.778   3.408   1.200
   16CHTO   O81 6398   6.846   3.527   1.045
   16CHTO  H202 6399   6.875   3.451   0.998
   16CHTO  C119 6400   6.707   3.612   1.230
   16CHTO  H223 6401   6.639   3.573   1.305
   16CHTO  C117 6402   6.630   3.727   1.152
   16CHTO  H221 6403   6.684   3.774   1.070
   16CHTO   N20 6404   6.593   3.839   1.245
   16CHTO  H209 6405   6.683   3.883   1.287
   16CHTO  H210 6406   6.529   3.803   1.324
   16CHTO   O80 6407   6.833   3.659   1.323
   16CHTO  C103 6408   6.902   3.554   1.420
   16CHTO  H190 6409   6.853   3.457   1.412
   16CHTO  C101 6410   7.057   3.535   1.401
   16CHTO  H188 6411   7.104   3.634   1.400
   16CHTO   O68 6412   7.081   3.467   1.264
   16CHTO  H168 6413   7.053   3.524   1.195
   16CHTO   C99 6414   7.121   3.450   1.521
   16CHTO  H186 6415   7.083   3.346   1.513
   16CHTO   N17 6416   7.271   3.440   1.513
   16CHTO  H174 6417   7.318   3.470   1.606
   16CHTO  H175 6418   7.301   3.340   1.486
   16CHTO   C97 6419   7.073   3.502   1.659
   16CHTO  H184 6420   7.122   3.598   1.681
   16CHTO   O64 6421   6.929   3.513   1.661
   16CHTO  C104 6422   6.875   3.606   1.566
   16CHTO  H191 6423   6.918   3.706   1.578
   16CHTO  C108 6424   6.725   3.622   1.594
   16CHTO   O71 6425   6.699   3.676   1.724
   16CHTO  H171 6426   6.726   3.766   1.727
   16CHTO   O62 6427   7.102   3.406   1.763
   16CHTO   C91 6428   7.114   3.446   1.901
   16CHTO  H178 6429   7.194   3.521   1.906
   16CHTO   C92 6430   7.167   3.318   1.975
   16CHTO  H179 6431   7.126   3.229   1.924
   16CHTO   O66 6432   7.309   3.310   1.955
   16CHTO  H166 6433   7.329   3.295   1.864
   16CHTO   C93 6434   7.131   3.309   2.129
   16CHTO  H180 6435   7.189   3.387   2.181
   16CHTO   N16 6436   7.168   3.180   2.193
   16CHTO  H172 6437   7.140   3.182   2.297
   16CHTO  H173 6438   7.274   3.163   2.182
   16CHTO   C94 6439   6.979   3.342   2.142
   16CHTO  H181 6440   6.919   3.284   2.071
   16CHTO   O61 6441   6.965   3.480   2.107
   16CHTO   C95 6442   6.982   3.508   1.967
   16CHTO  H182 6443   6.895   3.470   1.914
   16CHTO  C106 6444   6.976   3.665   1.952
   16CHTO   O69 6445   7.082   3.731   2.024
   16CHTO  H169 6446   7.069   3.720   2.116
   16CHTO   O63 6447   6.919   3.328   2.292
   16CHTO   C96 6448   6.824   3.199   2.320
   16CHTO  H183 6449   6.891   3.113   2.331
   16CHTO   C98 6450   6.718   3.163   2.209
   16CHTO  H185 6451   6.768   3.146   2.112
   16CHTO   O67 6452   6.660   3.036   2.245
   16CHTO  H167 6453   6.604   3.006   2.176
   16CHTO  C102 6454   6.601   3.272   2.199
   16CHTO  H189 6455   6.515   3.217   2.157
   16CHTO   N18 6456   6.627   3.383   2.104
   16CHTO  H176 6457   6.629   3.478   2.155
   16CHTO  H177 6458   6.552   3.385   2.026
   16CHTO  C105 6459   6.562   3.321   2.341
   16CHTO  H192 6460   6.603   3.421   2.358
   16CHTO   O65 6461   6.608   3.236   2.448
   16CHTO  C100 6462   6.751   3.225   2.459
   16CHTO  H187 6463   6.788   3.319   2.501
   16CHTO  C107 6464   6.782   3.113   2.561
   16CHTO   O70 6465   6.738   3.148   2.693
   16CHTO  H170 6466   6.790   3.218   2.727
   16CHTO   O57 6467   6.408   3.324   2.341
   16CHTO   C85 6468   6.336   3.443   2.377
   16CHTO  H157 6469   6.373   3.523   2.309
   16CHTO   C83 6470   6.372   3.490   2.522
   16CHTO  H155 6471   6.478   3.518   2.524
   16CHTO   O56 6472   6.358   3.378   2.613
   16CHTO  H135 6473   6.388   3.402   2.699
   16CHTO   C81 6474   6.286   3.614   2.559
   16CHTO  H153 6475   6.305   3.691   2.484
   16CHTO   N14 6476   6.326   3.677   2.687
   16CHTO  H141 6477   6.431   3.701   2.686
   16CHTO  H142 6478   6.270   3.766   2.703
   16CHTO   C79 6479   6.134   3.576   2.553
   16CHTO  H151 6480   6.077   3.667   2.573
   16CHTO   O52 6481   6.100   3.536   2.416
   16CHTO   C86 6482   6.180   3.424   2.366
   16CHTO  H158 6483   6.146   3.337   2.426
   16CHTO   C90 6484   6.141   3.392   2.219
   16CHTO   O60 6485   6.005   3.351   2.210
   16CHTO  H138 6486   5.983   3.333   2.120
   16CHTO   O50 6487   6.094   3.475   2.647
   16CHTO   C73 6488   6.019   3.383   2.728
   16CHTO  H145 6489   6.087   3.331   2.798
   16CHTO   C74 6490   5.946   3.276   2.641
   16CHTO  H146 6491   6.023   3.225   2.581
   16CHTO   O54 6492   5.891   3.177   2.730
   16CHTO  H133 6493   5.852   3.108   2.680
   16CHTO   C75 6494   5.838   3.346   2.549
   16CHTO  H147 6495   5.890   3.415   2.480
   16CHTO   N13 6496   5.763   3.254   2.461
   16CHTO  H139 6497   5.831   3.201   2.396
   16CHTO  H140 6498   5.693   3.309   2.400
   16CHTO   C76 6499   5.741   3.436   2.639
   16CHTO  H148 6500   5.682   3.370   2.703
   16CHTO   O49 6501   5.820   3.527   2.723
   16CHTO   C77 6502   5.912   3.461   2.811
   16CHTO  H149 6503   5.859   3.391   2.876
   16CHTO   C88 6504   5.973   3.568   2.903
   16CHTO   O58 6505   6.049   3.506   3.012
   16CHTO  H136 6506   5.991   3.463   3.071
   16CHTO   O51 6507   5.646   3.532   2.544
   16CHTO   C78 6508   5.584   3.658   2.621
   16CHTO  H150 6509   5.630   3.671   2.721
   16CHTO   C80 6510   5.431   3.643   2.638
   16CHTO  H152 6511   5.384   3.637   2.537
   16CHTO   O55 6512   5.408   3.519   2.707
   16CHTO  H134 6513   5.442   3.522   2.794
   16CHTO   C84 6514   5.373   3.768   2.716
   16CHTO  H156 6515   5.418   3.768   2.816
   16CHTO   N15 6516   5.225   3.761   2.737
   16CHTO  H143 6517   5.191   3.846   2.792
   16CHTO  H144 6518   5.175   3.759   2.642
   16CHTO   C87 6519   5.415   3.900   2.646
   16CHTO  H159 6520   5.361   3.911   2.552
   16CHTO   O53 6521   5.572   3.898   2.618
   16CHTO   C82 6522   5.614   3.786   2.541
   16CHTO  H154 6523   5.561   3.784   2.445
   16CHTO   C89 6524   5.765   3.800   2.508
   16CHTO   O59 6525   5.847   3.807   2.625
   16CHTO  H137 6526   5.830   3.887   2.671
   16CHTO   O45 6527   5.375   4.032   2.745
   16CHTO   C67 6528   5.468   4.141   2.749
   16CHTO  H124 6529   5.560   4.114   2.698
   16CHTO   C65 6530   5.408   4.268   2.679
   16CHTO  H122 6531   5.300   4.261   2.690
   16CHTO   O44 6532   5.442   4.257   2.540
   16CHTO  H102 6533   5.398   4.324   2.491
   16CHTO   C63 6534   5.448   4.403   2.753
   16CHTO  H120 6535   5.386   4.412   2.843
   16CHTO   N11 6536   5.415   4.531   2.682
   16CHTO  H108 6537   5.385   4.511   2.581
   16CHTO  H109 6538   5.337   4.583   2.733
   16CHTO   C61 6539   5.596   4.392   2.804
   16CHTO  H118 6540   5.618   4.484   2.862
   16CHTO   O40 6541   5.616   4.279   2.895
   16CHTO   C68 6542   5.512   4.175   2.897
   16CHTO  H125 6543   5.426   4.212   2.956
   16CHTO   C72 6544   5.570   4.053   2.973
   16CHTO   O48 6545   5.470   3.957   3.007
   16CHTO  H105 6546   5.510   3.885   3.053
   16CHTO   O38 6547   5.689   4.381   2.693
   16CHTO   C55 6548   5.829   4.398   2.722
   16CHTO  H112 6549   5.849   4.380   2.829
   16CHTO   C56 6550   5.878   4.541   2.676
   16CHTO  H113 6551   5.845   4.554   2.572
   16CHTO   O42 6552   5.810   4.641   2.753
   16CHTO  H100 6553   5.832   4.727   2.723
   16CHTO   C57 6554   6.036   4.554   2.686
   16CHTO  H114 6555   6.062   4.551   2.791
   16CHTO   N10 6556   6.088   4.683   2.631
   16CHTO  H106 6557   6.089   4.757   2.709
   16CHTO  H107 6558   6.188   4.670   2.593
   16CHTO   C58 6559   6.101   4.433   2.615
   16CHTO  H115 6560   6.079   4.438   2.505
   16CHTO   O37 6561   6.050   4.309   2.667
   16CHTO   C59 6562   5.910   4.290   2.644
   16CHTO  H116 6563   5.889   4.295   2.538
   16CHTO   C70 6564   5.872   4.147   2.688
   16CHTO   O46 6565   5.900   4.121   2.826
   16CHTO  H103 6566   5.877   4.032   2.846
   16CHTO   O39 6567   6.262   4.425   2.639
   16CHTO   C60 6568   6.332   4.366   2.528
   16CHTO  H117 6569   6.260   4.323   2.457
   16CHTO   C62 6570   6.414   4.473   2.450
   16CHTO  H119 6571   6.341   4.550   2.417
   16CHTO   O43 6572   6.510   4.536   2.538
   16CHTO  H101 6573   6.466   4.585   2.604
   16CHTO   C66 6574   6.480   4.405   2.321
   16CHTO  H123 6575   6.401   4.362   2.262
   16CHTO   N12 6576   6.548   4.502   2.231
   16CHTO  H110 6577   6.654   4.481   2.223
   16CHTO  H111 6578   6.531   4.604   2.264
   16CHTO   C69 6579   6.573   4.289   2.365
   16CHTO  H126 6580   6.658   4.330   2.423
   16CHTO   O41 6581   6.494   4.188   2.454
   16CHTO   C64 6582   6.424   4.250   2.574
   16CHTO  H121 6583   6.500   4.290   2.646
   16CHTO   C71 6584   6.344   4.139   2.646
   16CHTO   O47 6585   6.431   4.038   2.698
   16CHTO  H104 6586   6.381   3.973   2.742
   16CHTO   O34 6587   6.630   4.208   2.240
   16CHTO   C49 6588   6.757   4.117   2.233
   16CHTO   H91 6589   6.830   4.169   2.172
   16CHTO   C47 6590   6.720   3.983   2.165
   16CHTO   H89 6591   6.815   3.927   2.150
   16CHTO   O33 6592   6.663   4.012   2.036
   16CHTO   H70 6593   6.728   4.047   1.978
   16CHTO   C45 6594   6.622   3.900   2.262
   16CHTO   H87 6595   6.533   3.961   2.280
   16CHTO    N8 6596   6.579   3.772   2.199
   16CHTO   H75 6597   6.472   3.774   2.181
   16CHTO   H76 6598   6.603   3.687   2.262
   16CHTO   C43 6599   6.689   3.880   2.408
   16CHTO   H85 6600   6.608   3.841   2.470
   16CHTO   O29 6601   6.740   4.005   2.459
   16CHTO   C50 6602   6.818   4.090   2.372
   16CHTO   H92 6603   6.827   4.187   2.423
   16CHTO   C54 6604   6.966   4.046   2.360
   16CHTO   O36 6605   7.033   4.049   2.487
   16CHTO   H72 6606   7.121   4.021   2.477
   16CHTO   O27 6607   6.793   3.780   2.412
   16CHTO   C37 6608   6.867   3.728   2.525
   16CHTO   H79 6609   6.917   3.811   2.578
   16CHTO   C38 6610   6.773   3.659   2.629
   16CHTO   H80 6611   6.710   3.586   2.576
   16CHTO   O31 6612   6.689   3.760   2.687
   16CHTO   H68 6613   6.623   3.720   2.742
   16CHTO   C39 6614   6.854   3.585   2.743
   16CHTO   H81 6615   6.899   3.662   2.806
   16CHTO    N7 6616   6.766   3.501   2.831
   16CHTO   H73 6617   6.691   3.563   2.878
   16CHTO   H74 6618   6.825   3.452   2.907
   16CHTO   C40 6619   6.972   3.499   2.684
   16CHTO   H82 6620   6.933   3.408   2.638
   16CHTO   O26 6621   7.050   3.576   2.591
   16CHTO   C41 6622   6.974   3.627   2.477
   16CHTO   H83 6623   6.924   3.544   2.425
   16CHTO   C52 6624   7.075   3.691   2.378
   16CHTO   O35 6625   7.175   3.596   2.330
   16CHTO   H71 6626   7.235   3.641   2.274
   16CHTO   O28 6627   7.071   3.468   2.784
   16CHTO   C42 6628   7.122   3.333   2.809
   16CHTO   H84 6629   7.225   3.352   2.839
   16CHTO   C44 6630   7.131   3.236   2.686
   16CHTO   H86 6631   7.032   3.227   2.641
   16CHTO   O32 6632   7.217   3.298   2.589
   16CHTO   H69 6633   7.305   3.304   2.621
   16CHTO   C48 6634   7.179   3.090   2.726
   16CHTO   H90 6635   7.282   3.095   2.760
   16CHTO    N9 6636   7.179   2.997   2.608
   16CHTO   H77 6637   7.212   2.899   2.639
   16CHTO   H78 6638   7.244   3.035   2.531
   16CHTO   C51 6639   7.088   3.039   2.844
   16CHTO   H93 6640   6.984   3.037   2.809
   16CHTO   O30 6641   7.107   3.128   2.954
   16CHTO   C46 6642   7.051   3.265   2.931
   16CHTO   H88 6643   6.944   3.257   2.912
   16CHTO   C53 6644   7.076   3.342   3.063
   16CHTO   O72 6645   7.015   3.471   3.066
   16CHTO  H199 6646   6.921   3.462   3.069
   16CHTO   O22 6647   7.127   2.909   2.893
   16CHTO   C31 6648   7.035   2.824   2.973
   16CHTO   H59 6649   7.094   2.735   3.003
   16CHTO   C29 6650   6.982   2.889   3.103
   16CHTO   H57 6651   6.927   2.980   3.075
   16CHTO   O21 6652   7.095   2.930   3.181
   16CHTO   H37 6653   7.143   2.998   3.137
   16CHTO   C27 6654   6.886   2.793   3.184
   16CHTO   H55 6655   6.945   2.708   3.221
   16CHTO    N5 6656   6.823   2.862   3.300
   16CHTO   H43 6657   6.715   2.855   3.297
   16CHTO   H44 6658   6.860   2.820   3.392
   16CHTO   C25 6659   6.778   2.730   3.088
   16CHTO   H53 6660   6.707   2.808   3.056
   16CHTO   O17 6661   6.839   2.673   2.968
   16CHTO   C32 6662   6.914   2.768   2.890
   16CHTO   H60 6663   6.849   2.851   2.862
   16CHTO   C36 6664   6.960   2.697   2.759
   16CHTO   O25 6665   7.045   2.584   2.784
   16CHTO   H40 6666   7.127   2.614   2.818
   16CHTO   O15 6667   6.700   2.614   3.161
   16CHTO   C19 6668   6.559   2.585   3.182
   16CHTO   H47 6669   6.514   2.683   3.203
   16CHTO   C20 6670   6.487   2.522   3.058
   16CHTO   H48 6671   6.531   2.426   3.029
   16CHTO   O19 6672   6.505   2.613   2.947
   16CHTO   H35 6673   6.462   2.695   2.964
   16CHTO   C21 6674   6.333   2.497   3.087
   16CHTO   H49 6675   6.284   2.593   3.102
   16CHTO    N4 6676   6.262   2.430   2.975
   16CHTO   H41 6677   6.266   2.492   2.886
   16CHTO   H42 6678   6.307   2.335   2.953
   16CHTO   C22 6679   6.320   2.418   3.220
   16CHTO   H50 6680   6.361   2.317   3.206
   16CHTO   O14 6681   6.390   2.484   3.326
   16CHTO   C23 6682   6.532   2.496   3.307
   16CHTO   H51 6683   6.573   2.394   3.295
   16CHTO   C34 6684   6.589   2.556   3.437
   16CHTO   O23 6685   6.731   2.547   3.441
   16CHTO   H38 6686   6.763   2.586   3.520
   16CHTO   O16 6687   6.184   2.412   3.267
   16CHTO   C24 6688   6.154   2.285   3.360
   16CHTO   H52 6689   6.246   2.233   3.389
   16CHTO   C26 6690   6.064   2.188   3.282
   16CHTO   H54 6691   5.978   2.246   3.239
   16CHTO   O20 6692   6.141   2.134   3.172
   16CHTO   H36 6693   6.158   2.201   3.109
   16CHTO   C30 6694   6.006   2.074   3.372
   16CHTO   H58 6695   6.087   2.006   3.403
   16CHTO    N6 6696   5.907   1.990   3.299
   16CHTO   H45 6697   5.954   1.945   3.213
   16CHTO   H46 6698   5.869   1.913   3.364
   16CHTO   C33 6699   5.947   2.135   3.503
   16CHTO   H61 6700   5.860   2.198   3.479
   16CHTO   O18 6701   6.047   2.216   3.566
   16CHTO   C28 6702   6.087   2.332   3.491
   16CHTO   H56 6703   6.000   2.394   3.467
   16CHTO   C35 6704   6.186   2.415   3.577
   16CHTO   O24 6705   6.129   2.458   3.701
   16CHTO   H39 6706   6.193   2.507   3.749
   16CHTO    O9 6707   5.897   2.034   3.594
   16CHTO   C13 6708   5.789   2.091   3.702
   16CHTO   H26 6709   5.710   2.146   3.646
   16CHTO   C11 6710   5.862   2.185   3.808
   16CHTO   H24 6711   5.881   2.282   3.760
   16CHTO    O8 6712   5.988   2.128   3.847
   16CHTO    H3 6713   6.046   2.125   3.774
   16CHTO    C9 6714   5.766   2.205   3.929
   16CHTO   H22 6715   5.669   2.234   3.885
   16CHTO    N2 6716   5.802   2.318   4.018
   16CHTO   H10 6717   5.898   2.360   3.991
   16CHTO   H11 6718   5.726   2.395   4.015
   16CHTO    C7 6719   5.748   2.066   4.002
   16CHTO   H20 6720   5.645   2.072   4.045
   16CHTO    O4 6721   5.755   1.953   3.912
   16CHTO   C14 6722   5.711   1.973   3.776
   16CHTO   H27 6723   5.602   1.999   3.779
   16CHTO   C18 6724   5.722   1.838   3.701
   16CHTO   O13 6725   5.635   1.739   3.759
   16CHTO    H7 6726   5.643   1.659   3.711
   16CHTO    O2 6727   5.856   2.041   4.121
   16CHTO    C1 6728   5.815   1.942   4.216
   16CHTO   H14 6729   5.738   1.875   4.170
   16CHTO    C2 6730   5.755   2.005   4.348
   16CHTO   H15 6731   5.832   2.074   4.386
   16CHTO    O6 6732   5.636   2.078   4.314
   16CHTO    H1 6733   5.658   2.153   4.261
   16CHTO    C3 6734   5.724   1.891   4.457
   16CHTO   H16 6735   5.638   1.832   4.421
   16CHTO    N1 6736   5.685   1.949   4.590
   16CHTO    H8 6737   5.662   1.870   4.659
   16CHTO    H9 6738   5.766   2.009   4.629
   16CHTO    C4 6739   5.844   1.789   4.469
   16CHTO   H17 6740   5.925   1.836   4.525
   16CHTO    O1 6741   5.890   1.746   4.340
   16CHTO    C5 6742   5.935   1.850   4.252
   16CHTO   H18 6743   6.011   1.910   4.302
   16CHTO   C16 6744   5.999   1.779   4.130
   16CHTO   O11 6745   6.069   1.869   4.044
   16CHTO    H5 6746   6.008   1.928   4.003
   16CHTO    O3 6747   5.800   1.668   4.534
   16CHTO    C6 6748   5.898   1.598   4.618
   16CHTO   H19 6749   5.998   1.641   4.612
   16CHTO    C8 6750   5.851   1.603   4.767
   16CHTO   H21 6751   5.746   1.573   4.771
   16CHTO    O7 6752   5.864   1.739   4.812
   16CHTO    H2 6753   5.800   1.794   4.770
   16CHTO   C12 6754   5.934   1.504   4.858
   16CHTO   H25 6755   6.037   1.545   4.863
   16CHTO    N3 6756   5.882   1.498   4.999
   16CHTO   H12 6757   5.796   1.563   5.012
   16CHTO   H13 6758   5.960   1.525   5.069
   16CHTO   C15 6759   5.940   1.363   4.790
   16CHTO   H28 6760   5.841   1.315   4.787
   16CHTO   O10 6761   6.039   1.266   4.858
   16CHTO    H4 6762   6.124   1.306   4.864
   16CHTO    O5 6763   5.992   1.373   4.657
   16CHTO   C10 6764   5.909   1.451   4.569
   16CHTO   H23 6765   5.809   1.406   4.567
   16CHTO   C17 6766   5.965   1.439   4.426
   16CHTO   O12 6767   6.099   1.488   4.416
   16CHTO    H6 6768   6.158   1.432   4.462
   17CHTO  H203 6769   6.573   4.438   5.212
   17CHTO   O82 6770   6.525   4.434   5.131
   17CHTO  C123 6771   6.415   4.527   5.134
   17CHTO  H227 6772   6.362   4.515   5.230
   17CHTO   O77 6773   6.480   4.657   5.128
   17CHTO  C118 6774   6.390   4.768   5.140
   17CHTO  H222 6775   6.330   4.756   5.232
   17CHTO  C125 6776   6.475   4.900   5.151
   17CHTO   O84 6777   6.560   4.920   5.037
   17CHTO  H205 6778   6.608   4.999   5.048
   17CHTO  C114 6779   6.295   4.768   5.018
   17CHTO  H218 6780   6.355   4.779   4.928
   17CHTO  C116 6781   6.218   4.633   5.006
   17CHTO  H220 6782   6.147   4.626   5.091
   17CHTO   O79 6783   6.140   4.635   4.885
   17CHTO  H201 6784   6.071   4.699   4.892
   17CHTO  C120 6785   6.318   4.510   5.011
   17CHTO  H224 6786   6.376   4.513   4.916
   17CHTO   N21 6787   6.244   4.381   5.014
   17CHTO  H211 6788   6.223   4.352   5.116
   17CHTO  H212 6789   6.302   4.304   4.965
   17CHTO   O75 6790   6.209   4.882   5.037
   17CHTO  C112 6791   6.194   4.975   4.904
   17CHTO  H216 6792   6.157   4.913   4.820
   17CHTO   O73 6793   6.323   5.031   4.876
   17CHTO  C113 6794   6.328   5.120   4.764
   17CHTO  H217 6795   6.289   5.068   4.674
   17CHTO  C124 6796   6.476   5.152   4.739
   17CHTO   O83 6797   6.500   5.211   4.611
   17CHTO  H204 6798   6.591   5.230   4.601
   17CHTO  C109 6799   6.243   5.245   4.798
   17CHTO  H213 6800   6.284   5.288   4.891
   17CHTO  C110 6801   6.096   5.200   4.823
   17CHTO  H214 6802   6.054   5.162   4.730
   17CHTO   O78 6803   6.020   5.317   4.861
   17CHTO  H200 6804   5.929   5.295   4.868
   17CHTO  C111 6805   6.090   5.090   4.934
   17CHTO  H215 6806   6.119   5.136   5.030
   17CHTO   N19 6807   5.953   5.035   4.954
   17CHTO  H207 6808   5.921   5.048   5.056
   17CHTO  H208 6809   5.948   4.930   4.927
   17CHTO   O74 6810   6.248   5.345   4.692
   17CHTO  C115 6811   6.337   5.474   4.732
   17CHTO  H219 6812   6.397   5.455   4.822
   17CHTO   O76 6813   6.442   5.507   4.623
   17CHTO  C122 6814   6.384   5.556   4.501
   17CHTO  H226 6815   6.325   5.475   4.459
   17CHTO  C126 6816   6.503   5.579   4.401
   17CHTO   O85 6817   6.460   5.626   4.273
   17CHTO  H206 6818   6.534   5.637   4.217
   17CHTO  C121 6819   6.297   5.687   4.524
   17CHTO  H225 6820   6.346   5.773   4.474
   17CHTO   O81 6821   6.169   5.667   4.462
   17CHTO  H202 6822   6.121   5.747   4.461
   17CHTO  C119 6823   6.280   5.721   4.676
   17CHTO  H223 6824   6.379   5.750   4.710
   17CHTO  C117 6825   6.237   5.594   4.759
   17CHTO  H221 6826   6.138   5.555   4.735
   17CHTO   N20 6827   6.231   5.625   4.906
   17CHTO  H209 6828   6.328   5.655   4.943
   17CHTO  H210 6829   6.158   5.703   4.924
   17CHTO   O80 6830   6.196   5.857   4.700
   17CHTO  C103 6831   6.261   5.972   4.783
   17CHTO  H190 6832   6.324   5.931   4.862
   17CHTO  C101 6833   6.345   6.077   4.701
   17CHTO  H188 6834   6.283   6.117   4.621
   17CHTO   O68 6835   6.469   6.005   4.637
   17CHTO  H168 6836   6.526   5.973   4.705
   17CHTO   C99 6837   6.390   6.199   4.796
   17CHTO  H186 6838   6.461   6.160   4.871
   17CHTO   N17 6839   6.462   6.309   4.723
   17CHTO  H174 6840   6.500   6.381   4.794
   17CHTO  H175 6841   6.396   6.355   4.652
   17CHTO   C97 6842   6.269   6.253   4.877
   17CHTO  H184 6843   6.205   6.312   4.810
   17CHTO   O64 6844   6.196   6.148   4.942
   17CHTO  C104 6845   6.143   6.048   4.854
   17CHTO  H191 6846   6.079   6.093   4.778
   17CHTO  C108 6847   6.053   5.954   4.935
   17CHTO   O71 6848   5.937   6.022   4.984
   17CHTO  H171 6849   5.883   5.961   5.030
   17CHTO   O62 6850   6.313   6.334   4.989
   17CHTO   C91 6851   6.222   6.435   5.036
   17CHTO  H178 6852   6.130   6.428   4.978
   17CHTO   C92 6853   6.283   6.576   5.004
   17CHTO  H179 6854   6.316   6.579   4.899
   17CHTO   O66 6855   6.177   6.673   5.014
   17CHTO  H166 6856   6.207   6.757   4.985
   17CHTO   C93 6857   6.398   6.616   5.105
   17CHTO  H180 6858   6.411   6.724   5.094
   17CHTO   N16 6859   6.529   6.556   5.068
   17CHTO  H172 6860   6.565   6.490   5.145
   17CHTO  H173 6861   6.601   6.634   5.048
   17CHTO   C94 6862   6.356   6.584   5.255
   17CHTO  H181 6863   6.415   6.502   5.297
   17CHTO   O61 6864   6.219   6.542   5.265
   17CHTO   C95 6865   6.185   6.424   5.191
   17CHTO  H182 6866   6.239   6.339   5.234
   17CHTO  C106 6867   6.032   6.397   5.213
   17CHTO   O69 6868   5.990   6.277   5.147
   17CHTO  H169 6869   5.898   6.263   5.163
   17CHTO   O63 6870   6.385   6.720   5.344
   17CHTO   C96 6871   6.264   6.775   5.435
   17CHTO  H183 6872   6.184   6.700   5.439
   17CHTO   C98 6873   6.202   6.908   5.386
   17CHTO  H185 6874   6.281   6.983   5.370
   17CHTO   O67 6875   6.147   6.882   5.255
   17CHTO  H167 6876   6.113   6.961   5.218
   17CHTO  C102 6877   6.089   6.964   5.487
   17CHTO  H189 6878   6.005   6.894   5.479
   17CHTO   N18 6879   6.035   7.097   5.451
   17CHTO  H176 6880   6.114   7.170   5.449
   17CHTO  H177 6881   5.987   7.092   5.354
   17CHTO  C105 6882   6.140   6.958   0.000
   17CHTO  H192 6883   6.209   7.040   0.018
   17CHTO   O65 6884   6.205   6.835   0.035
   17CHTO  C100 6885   6.314   6.796   5.583
   17CHTO  H187 6886   6.390   6.876   5.583
   17CHTO  C107 6887   6.381   6.669   0.006
   17CHTO   O70 6888   6.290   6.558   0.014
   17CHTO  H170 6889   6.267   6.529   5.561
   17CHTO   O57 6890   6.004   6.974   0.094
   17CHTO   C85 6891   6.006   7.066   0.205
   17CHTO  H157 6892   6.073   7.149   0.175
   17CHTO   C83 6893   6.072   7.000   0.330
   17CHTO  H155 6894   6.174   6.971   0.303
   17CHTO   O56 6895   6.002   6.879   0.364
   17CHTO  H135 6896   6.010   6.816   0.295
   17CHTO   C81 6897   6.078   7.105   0.445
   17CHTO  H153 6898   6.134   7.191   0.409
   17CHTO   N14 6899   6.155   7.059   0.563
   17CHTO  H141 6900   6.106   6.975   0.608
   17CHTO  H142 6901   6.254   7.029   0.533
   17CHTO   C79 6902   5.933   7.154   0.482
   17CHTO  H151 6903   5.944   7.239   0.551
   17CHTO   O52 6904   5.864   7.207   0.364
   17CHTO   C86 6905   5.863   7.118   0.247
   17CHTO  H158 6906   5.797   7.033   0.277
   17CHTO   C90 6907   5.793   7.187   0.128
   17CHTO   O60 6908   5.656   7.218   0.158
   17CHTO  H138 6909   5.652   7.286   0.223
   17CHTO   O50 6910   5.850   7.055   0.546
   17CHTO   C73 6911   5.741   7.084   0.634
   17CHTO  H145 6912   5.702   7.186   0.615
   17CHTO   C74 6913   5.785   7.077   0.784
   17CHTO  H146 6914   5.868   7.149   0.797
   17CHTO   O54 6915   5.677   7.124   0.865
   17CHTO  H133 6916   5.702   7.126   0.956
   17CHTO   C75 6917   5.830   6.929   0.818
   17CHTO  H147 6918   5.916   6.903   0.754
   17CHTO   N13 6919   5.877   6.910   0.957
   17CHTO  H139 6920   5.962   6.974   0.977
   17CHTO  H140 6921   5.798   6.936   1.026
   17CHTO   C76 6922   5.711   6.828   0.780
   17CHTO  H148 6923   5.627   6.847   0.847
   17CHTO   O49 6924   5.669   6.848   0.641
   17CHTO   C77 6925   5.626   6.982   0.610
   17CHTO  H149 6926   5.540   7.009   0.672
   17CHTO   C88 6927   5.576   6.982   0.465
   17CHTO   O58 6928   5.519   7.112   0.427
   17CHTO  H136 6929   5.489   7.108   0.338
   17CHTO   O51 6930   5.762   6.677   0.786
   17CHTO   C78 6931   5.646   6.573   0.764
   17CHTO  H150 6932   5.553   6.624   0.730
   17CHTO   C80 6933   5.618   6.498   0.896
   17CHTO  H152 6934   5.714   6.458   0.935
   17CHTO   O55 6935   5.569   6.595   0.991
   17CHTO  H134 6936   5.559   6.556   1.075
   17CHTO   C84 6937   5.514   6.380   0.877
   17CHTO  H156 6938   5.417   6.425   0.857
   17CHTO   N15 6939   5.499   6.294   0.999
   17CHTO  H143 6940   5.561   6.329   1.079
   17CHTO  H144 6941   5.397   6.294   1.032
   17CHTO   C87 6942   5.552   6.294   0.753
   17CHTO  H159 6943   5.642   6.235   0.774
   17CHTO   O53 6944   5.576   6.385   0.633
   17CHTO   C82 6945   5.687   6.473   0.654
   17CHTO  H154 6946   5.775   6.417   0.682
   17CHTO   C89 6947   5.718   6.542   0.518
   17CHTO   O59 6948   5.842   6.614   0.520
   17CHTO  H137 6949   5.834   6.688   0.577
   17CHTO   O45 6950   5.430   6.194   0.712
   17CHTO   C67 6951   5.474   6.069   0.656
   17CHTO  H124 6952   5.561   6.031   0.709
   17CHTO   C65 6953   5.358   5.964   0.667
   17CHTO  H122 6954   5.321   5.973   0.769
   17CHTO   O44 6955   5.409   5.831   0.647
   17CHTO  H102 6956   5.436   5.820   0.558
   17CHTO   C63 6957   5.239   6.008   0.574
   17CHTO  H120 6958   5.207   6.108   0.602
   17CHTO   N11 6959   5.112   5.929   0.592
   17CHTO  H108 6960   5.076   5.893   0.498
   17CHTO  H109 6961   5.036   5.989   0.639
   17CHTO   C61 6962   5.289   6.017   0.425
   17CHTO  H118 6963   5.207   6.064   0.369
   17CHTO   O40 6964   5.404   6.106   0.413
   17CHTO   C68 6965   5.518   6.089   0.504
   17CHTO  H125 6966   5.576   6.183   0.498
   17CHTO   C72 6967   5.612   5.977   0.451
   17CHTO   O48 6968   5.734   5.967   0.524
   17CHTO  H105 6969   5.787   5.898   0.489
   17CHTO   O38 6970   5.324   5.890   0.366
   17CHTO   C55 6971   5.291   5.859   0.229
   17CHTO  H112 6972   5.357   5.775   0.202
   17CHTO   C56 6973   5.306   5.980   0.125
   17CHTO  H113 6974   5.247   6.065   0.162
   17CHTO   O42 6975   5.443   6.024   0.123
   17CHTO  H100 6976   5.452   6.100   0.069
   17CHTO   C57 6977   5.254   5.938   5.615
   17CHTO  H114 6978   5.319   5.858   5.578
   17CHTO   N10 6979   5.257   6.047   5.514
   17CHTO  H106 6980   5.166   6.104   5.516
   17CHTO  H107 6981   5.341   6.113   5.533
   17CHTO   C58 6982   5.111   5.880   5.631
   17CHTO  H115 6983   5.045   5.960   0.040
   17CHTO   O37 6984   5.114   5.768   0.087
   17CHTO   C59 6985   5.146   5.801   0.222
   17CHTO  H116 6986   5.075   5.874   0.261
   17CHTO   C70 6987   5.132   5.674   0.307
   17CHTO   O46 6988   5.220   5.567   0.269
   17CHTO  H103 6989   5.309   5.592   0.286
   17CHTO   O39 6990   5.046   5.822   5.491
   17CHTO   C60 6991   4.902   5.835   5.491
   17CHTO  H117 6992   4.868   5.874   5.587
   17CHTO   C62 6993   4.855   5.936   5.382
   17CHTO  H119 6994   4.910   6.031   5.403
   17CHTO   O43 6995   4.895   5.890   5.252
   17CHTO  H101 6996   4.851   5.809   5.231
   17CHTO   C66 6997   4.698   5.961   5.397
   17CHTO  H123 6998   4.679   5.999   5.498
   17CHTO   N12 6999   4.647   6.064   5.304
   17CHTO  H110 7000   4.541   6.078   5.318
   17CHTO  H111 7001   4.700   6.157   5.319
   17CHTO   C69 7002   4.619   5.827   5.385
   17CHTO  H126 7003   4.625   5.789   5.280
   17CHTO   O41 7004   4.680   5.718   5.483
   17CHTO   C64 7005   4.831   5.699   5.470
   17CHTO  H121 7006   4.855   5.661   5.368
   17CHTO   C71 7007   4.877   5.591   5.571
   17CHTO   O47 7008   4.851   5.628   0.072
   17CHTO  H104 7009   4.905   5.700   0.097
   17CHTO   O34 7010   4.466   5.849   5.422
   17CHTO   C49 7011   4.341   5.902   5.499
   17CHTO   H91 7012   4.294   5.977   5.435
   17CHTO   C47 7013   4.384   5.967   5.633
   17CHTO   H89 7014   4.290   6.008   0.040
   17CHTO   O33 7015   4.474   6.076   5.611
   17CHTO   H70 7016   4.555   6.045   5.574
   17CHTO   C45 7017   4.448   5.857   0.100
   17CHTO   H87 7018   4.557   5.856   0.085
   17CHTO    N8 7019   4.419   5.898   0.240
   17CHTO   H75 7020   4.459   5.997   0.258
   17CHTO   H76 7021   4.465   5.828   0.308
   17CHTO   C43 7022   4.398   5.709   0.059
   17CHTO   H85 7023   4.462   5.682   5.609
   17CHTO   O29 7024   4.260   5.714   0.020
   17CHTO   C50 7025   4.237   5.790   5.534
   17CHTO   H92 7026   4.235   5.719   5.450
   17CHTO   C54 7027   4.093   5.848   5.536
   17CHTO   O36 7028   3.995   5.744   5.532
   17CHTO   H72 7029   3.997   5.695   5.612
   17CHTO   O27 7030   4.424   5.608   0.158
   17CHTO   C37 7031   4.532   5.513   0.154
   17CHTO   H79 7032   4.613   5.550   0.089
   17CHTO   C38 7033   4.593   5.490   0.295
   17CHTO   H80 7034   4.512   5.463   0.364
   17CHTO   O31 7035   4.652   5.615   0.336
   17CHTO   H68 7036   4.584   5.678   0.354
   17CHTO   C39 7037   4.701   5.374   0.292
   17CHTO   H81 7038   4.784   5.409   0.230
   17CHTO    N7 7039   4.757   5.343   0.428
   17CHTO   H73 7040   4.803   5.432   0.470
   17CHTO   H74 7041   4.830   5.264   0.421
   17CHTO   C40 7042   4.642   5.245   0.224
   17CHTO   H82 7043   4.566   5.202   0.291
   17CHTO   O26 7044   4.587   5.278   0.096
   17CHTO   C41 7045   4.481   5.378   0.096
   17CHTO   H83 7046   4.396   5.341   0.156
   17CHTO   C52 7047   4.432   5.392   5.584
   17CHTO   O35 7048   4.541   5.434   5.489
   17CHTO   H71 7049   4.605   5.366   5.482
   17CHTO   O28 7050   4.736   5.137   0.200
   17CHTO   C42 7051   4.860   5.133   0.120
   17CHTO   H84 7052   4.881   5.026   0.115
   17CHTO   C44 7053   4.987   5.197   0.186
   17CHTO   H86 7054   4.968   5.303   0.205
   17CHTO   O32 7055   5.007   5.131   0.313
   17CHTO   H69 7056   4.938   5.154   0.373
   17CHTO   C48 7057   5.115   5.188   0.094
   17CHTO   H90 7058   5.140   5.082   0.080
   17CHTO    N9 7059   5.237   5.250   0.157
   17CHTO   H77 7060   5.259   5.201   0.250
   17CHTO   H78 7061   5.321   5.243   0.090
   17CHTO   C51 7062   5.081   5.250   5.588
   17CHTO   H93 7063   5.053   5.355   5.602
   17CHTO   O30 7064   4.974   5.174   5.531
   17CHTO   C46 7065   4.843   5.183   5.606
   17CHTO   H88 7066   4.810   5.287   5.607
   17CHTO   C53 7067   4.742   5.095   5.529
   17CHTO   O72 7068   4.715   5.149   5.399
   17CHTO  H199 7069   4.666   5.228   5.407
   17CHTO   O22 7070   5.189   5.239   5.493
   17CHTO   C31 7071   5.202   5.327   5.374
   17CHTO   H59 7072   5.284   5.283   5.314
   17CHTO   C29 7073   5.078   5.333   5.282
   17CHTO   H57 7074   4.994   5.375   5.340
   17CHTO   O21 7075   5.041   5.198   5.246
   17CHTO   H37 7076   5.012   5.151   5.321
   17CHTO   C27 7077   5.103   5.422   5.154
   17CHTO   H55 7078   5.176   5.371   5.090
   17CHTO    N5 7079   4.980   5.445   5.074
   17CHTO   H43 7080   4.935   5.350   5.048
   17CHTO   H44 7081   5.003   5.500   4.984
   17CHTO   C25 7082   5.169   5.559   5.194
   17CHTO   H53 7083   5.094   5.624   5.242
   17CHTO   O17 7084   5.279   5.542   5.287
   17CHTO   C32 7085   5.246   5.472   5.408
   17CHTO   H60 7086   5.164   5.523   5.460
   17CHTO   C36 7087   5.371   5.474   5.500
   17CHTO   O25 7088   5.404   5.608   5.541
   17CHTO   H40 7089   5.338   5.640   5.599
   17CHTO   O15 7090   5.228   5.632   5.065
   17CHTO   C19 7091   5.261   5.770   5.032
   17CHTO   H47 7092   5.321   5.762   4.940
   17CHTO   C20 7093   5.138   5.860   5.003
   17CHTO   H48 7094   5.069   5.864   5.089
   17CHTO   O19 7095   5.066   5.800   4.894
   17CHTO   H35 7096   5.118   5.802   4.815
   17CHTO   C21 7097   5.180   6.010   4.969
   17CHTO   H49 7098   5.234   6.010   4.875
   17CHTO    N4 7099   5.063   6.100   4.951
   17CHTO   H41 7100   5.000   6.064   4.871
   17CHTO   H42 7101   5.097   6.200   4.927
   17CHTO   C22 7102   5.277   6.062   5.079
   17CHTO   H50 7103   5.222   6.074   5.173
   17CHTO   O14 7104   5.386   5.971   5.097
   17CHTO   C23 7105   5.353   5.838   5.138
   17CHTO   H51 7106   5.305   5.845   5.236
   17CHTO   C34 7107   5.486   5.763   5.158
   17CHTO   O23 7108   5.568   5.766   5.041
   17CHTO   H38 7109   5.598   5.854   5.025
   17CHTO   O16 7110   5.342   6.184   5.040
   17CHTO   C24 7111   5.393   6.274   5.164
   17CHTO   H52 7112   5.373   6.227   5.260
   17CHTO   C26 7113   5.320   6.410   5.157
   17CHTO   H54 7114   5.338   6.455   5.056
   17CHTO   O20 7115   5.179   6.387   5.172
   17CHTO   H36 7116   5.145   6.343   5.096
   17CHTO   C30 7117   5.374   6.510   5.265
   17CHTO   H58 7118   5.343   6.475   5.365
   17CHTO    N6 7119   5.315   6.646   5.248
   17CHTO   H45 7120   5.352   6.711   5.326
   17CHTO   H46 7121   5.343   6.687   5.152
   17CHTO   C33 7122   5.530   6.513   5.266
   17CHTO   H61 7123   5.567   6.564   5.176
   17CHTO   O18 7124   5.584   6.379   5.268
   17CHTO   C28 7125   5.546   6.298   5.156
   17CHTO   H56 7126   5.569   6.348   5.062
   17CHTO   C35 7127   5.628   6.167   5.161
   17CHTO   O24 7128   5.608   6.092   5.281
   17CHTO   H39 7129   5.658   6.013   5.278
   17CHTO    O9 7130   5.579   6.590   5.377
   17CHTO   C13 7131   5.742   6.609   5.379
   17CHTO   H26 7132   5.785   6.569   5.284
   17CHTO   C11 7133   5.808   6.542   5.509
   17CHTO   H24 7134   5.904   6.498   5.478
   17CHTO    O8 7135   5.724   6.433   5.549
   17CHTO    H3 7136   5.764   6.384   5.618
   17CHTO    C9 7137   5.841   6.648   5.618
   17CHTO   H22 7138   5.933   6.699   5.583
   17CHTO    N2 7139   5.884   6.594   0.116
   17CHTO   H10 7140   5.919   6.674   0.179
   17CHTO   H11 7141   5.801   6.543   0.163
   17CHTO    C7 7142   5.726   6.754   5.622
   17CHTO   H20 7143   5.750   6.823   0.073
   17CHTO    O4 7144   5.725   6.830   5.500
   17CHTO   C14 7145   5.769   6.765   5.378
   17CHTO   H27 7146   5.879   6.779   5.367
   17CHTO   C18 7147   5.703   6.834   5.257
   17CHTO   O13 7148   5.747   6.970   5.246
   17CHTO    H7 7149   5.707   7.009   5.171
   17CHTO    O2 7150   5.578   6.685   0.008
   17CHTO    C1 7151   5.522   6.686   0.141
   17CHTO   H14 7152   5.599   6.720   0.214
   17CHTO    C2 7153   5.470   6.543   0.185
   17CHTO   H15 7154   5.407   6.507   0.102
   17CHTO    O6 7155   5.581   6.453   0.200
   17CHTO    H1 7156   5.638   6.483   0.268
   17CHTO    C3 7157   5.382   6.550   0.321
   17CHTO   H16 7158   5.450   6.568   0.405
   17CHTO    N1 7159   5.312   6.420   0.348
   17CHTO    H8 7160   5.255   6.427   0.440
   17CHTO    H9 7161   5.384   6.340   0.357
   17CHTO    C4 7162   5.283   6.672   0.319
   17CHTO   H17 7163   5.202   6.651   0.248
   17CHTO    O1 7164   5.352   6.792   0.281
   17CHTO    C5 7165   5.405   6.788   0.147
   17CHTO   H18 7166   5.328   6.755   0.077
   17CHTO   C16 7167   5.449   6.931   0.108
   17CHTO   O11 7168   5.339   7.023   0.113
   17CHTO    H5 7169   5.312   7.036   0.202
   17CHTO    O3 7170   5.226   6.692   0.451
   17CHTO    C6 7171   5.167   6.821   0.488
   17CHTO   H19 7172   5.224   6.906   0.449
   17CHTO    C8 7173   5.020   6.834   0.439
   17CHTO   H21 7174   4.964   6.747   0.473
   17CHTO    O7 7175   5.023   6.835   0.294
   17CHTO    H2 7176   4.935   6.835   0.260
   17CHTO   C12 7177   4.953   6.965   0.497
   17CHTO   H25 7178   5.004   7.051   0.447
   17CHTO    N3 7179   4.808   6.974   0.459
   17CHTO   H12 7180   4.754   6.891   0.500
   17CHTO   H13 7181   4.767   7.067   0.493
   17CHTO   C15 7182   4.978   6.976   0.652
   17CHTO   H28 7183   4.918   6.904   0.708
   17CHTO   O10 7184   4.953   7.114   0.705
   17CHTO    H4 7185   4.863   7.136   0.696
   17CHTO    O5 7186   5.117   6.960   0.684
   17CHTO   C10 7187   5.171   6.833   0.643
   17CHTO   H23 7188   5.110   6.754   0.686
   17CHTO   C17 7189   5.313   6.818   0.697
   17CHTO   O12 7190   5.315   6.809   0.840
   17CHTO    H6 7191   5.403   6.795   0.870
   18CHTO  H203 7192   6.431   7.638   1.069
   18CHTO   O82 7193   6.427   7.613   0.979
   18CHTO  C123 7194   6.493   7.487   0.960
   18CHTO  H227 7195   6.442   7.411   1.021
   18CHTO   O77 7196   6.469   7.460   0.818
   18CHTO  C118 7197   6.517   7.334   0.771
   18CHTO  H222 7198   6.468   7.252   0.826
   18CHTO  C125 7199   6.474   7.326   0.620
   18CHTO   O84 7200   6.497   7.198   0.560
   18CHTO  H205 7201   6.468   7.200   0.471
   18CHTO  C114 7202   6.670   7.328   0.789
   18CHTO  H218 7203   6.715   7.406   0.728
   18CHTO  C116 7204   6.713   7.357   0.936
   18CHTO  H220 7205   6.681   7.273   1.001
   18CHTO   O79 7206   6.857   7.359   0.942
   18CHTO  H201 7207   6.891   7.430   0.890
   18CHTO  C120 7208   6.648   7.492   0.987
   18CHTO  H224 7209   6.694   7.574   0.928
   18CHTO   N21 7210   6.677   7.518   1.131
   18CHTO  H211 7211   6.688   7.425   1.185
   18CHTO  H212 7212   6.768   7.576   1.139
   18CHTO   O75 7213   6.709   7.197   0.741
   18CHTO  C112 7214   6.834   7.202   0.633
   18CHTO  H216 7215   6.925   7.234   0.686
   18CHTO   O73 7216   6.799   7.294   0.529
   18CHTO  C113 7217   6.900   7.314   0.430
   18CHTO  H217 7218   6.993   7.348   0.480
   18CHTO  C124 7219   6.856   7.427   0.336
   18CHTO   O83 7220   6.733   7.397   0.268
   18CHTO  H204 7221   6.710   7.470   0.213
   18CHTO  C109 7222   6.928   7.181   0.354
   18CHTO  H213 7223   6.834   7.154   0.302
   18CHTO  C110 7224   6.965   7.069   0.456
   18CHTO  H214 7225   7.063   7.092   0.499
   18CHTO   O78 7226   6.978   6.945   0.385
   18CHTO  H200 7227   7.051   6.948   0.326
   18CHTO  C111 7228   6.859   7.059   0.570
   18CHTO  H215 7229   6.764   7.025   0.526
   18CHTO   N19 7230   6.895   6.960   0.675
   18CHTO  H207 7231   6.816   6.955   0.749
   18CHTO  H208 7232   6.987   6.989   0.723
   18CHTO   O74 7233   7.033   7.201   0.256
   18CHTO  C115 7234   7.003   7.130   0.118
   18CHTO  H219 7235   6.943   7.040   0.132
   18CHTO   O76 7236   6.916   7.222   0.024
   18CHTO  C122 7237   6.989   7.335   5.609
   18CHTO  H226 7238   7.020   7.394   0.062
   18CHTO  C126 7239   6.895   7.428   5.525
   18CHTO   O85 7240   6.789   7.484   5.604
   18CHTO  H206 7241   6.736   7.539   5.549
   18CHTO  C121 7242   7.115   7.292   5.523
   18CHTO  H225 7243   7.094   7.314   5.417
   18CHTO   O81 7244   7.225   7.374   5.563
   18CHTO  H202 7245   7.297   7.362   5.504
   18CHTO  C119 7246   7.149   7.139   5.537
   18CHTO  H223 7247   7.072   7.086   5.482
   18CHTO  C117 7248   7.143   7.092   0.054
   18CHTO  H221 7249   7.218   7.138   0.118
   18CHTO   N20 7250   7.168   6.944   0.065
   18CHTO  H209 7251   7.092   6.890   0.011
   18CHTO  H210 7252   7.266   6.920   0.027
   18CHTO   O80 7253   7.286   7.095   5.455
   18CHTO  C103 7254   7.276   7.032   5.306
   18CHTO  H190 7255   7.377   7.009   5.270
   18CHTO  C101 7256   7.188   6.903   5.287
   18CHTO  H188 7257   7.089   6.921   5.331
   18CHTO   O68 7258   7.254   6.787   5.364
   18CHTO  H168 7259   7.199   6.711   5.360
   18CHTO   C99 7260   7.169   6.870   5.131
   18CHTO  H186 7261   7.269   6.851   5.086
   18CHTO   N17 7262   7.082   6.751   5.101
   18CHTO  H174 7263   7.041   6.711   5.192
   18CHTO  H175 7264   7.139   6.676   5.048
   18CHTO   C97 7265   7.115   6.997   5.061
   18CHTO  H184 7266   7.016   7.020   5.103
   18CHTO   O64 7267   7.207   7.106   5.079
   18CHTO  C104 7268   7.222   7.149   5.215
   18CHTO  H191 7269   7.126   7.182   5.254
   18CHTO  C108 7270   7.314   7.271   5.218
   18CHTO   O71 7271   7.442   7.246   5.159
   18CHTO  H171 7272   7.491   7.187   5.214
   18CHTO   O62 7273   7.110   6.989   4.917
   18CHTO   C91 7274   6.997   7.052   4.853
   18CHTO  H178 7275   6.907   7.012   4.899
   18CHTO   C92 7276   6.997   7.003   4.705
   18CHTO  H179 7277   7.094   7.027   4.659
   18CHTO   O66 7278   6.989   6.859   4.706
   18CHTO  H166 7279   7.067   6.822   4.741
   18CHTO   C93 7280   6.878   7.064   4.620
   18CHTO  H180 7281   6.787   7.014   4.657
   18CHTO   N16 7282   6.882   7.029   4.476
   18CHTO  H172 7283   6.966   6.965   4.453
   18CHTO  H173 7284   6.885   7.117   4.414
   18CHTO   C94 7285   6.864   7.219   4.643
   18CHTO  H181 7286   6.878   7.276   4.551
   18CHTO   O61 7287   6.965   7.274   4.731
   18CHTO   C95 7288   6.992   7.212   4.859
   18CHTO  H182 7289   7.089   7.247   4.894
   18CHTO  C106 7290   6.886   7.267   4.962
   18CHTO   O69 7291   6.918   7.240   5.099
   18CHTO  H169 7292   6.994   7.287   5.124
   18CHTO   O63 7293   6.716   7.245   4.701
   18CHTO   C96 7294   6.624   7.350   4.621
   18CHTO  H183 7295   6.521   7.332   4.654
   18CHTO   C98 7296   6.623   7.341   4.466
   18CHTO  H185 7297   6.726   7.348   4.427
   18CHTO   O67 7298   6.577   7.209   4.431
   18CHTO  H167 7299   6.582   7.197   4.338
   18CHTO  C102 7300   6.532   7.455   4.399
   18CHTO  H189 7301   6.428   7.431   4.427
   18CHTO   N18 7302   6.534   7.460   4.250
   18CHTO  H176 7303   6.435   7.444   4.210
   18CHTO  H177 7304   6.602   7.385   4.211
   18CHTO  C105 7305   6.567   7.593   4.462
   18CHTO  H192 7306   6.666   7.623   4.430
   18CHTO   O65 7307   6.566   7.588   4.606
   18CHTO  C100 7308   6.660   7.497   4.664
   18CHTO  H187 7309   6.761   7.521   4.627
   18CHTO  C107 7310   6.660   7.517   4.817
   18CHTO   O70 7311   6.534   7.483   4.878
   18CHTO  H170 7312   6.520   7.390   4.873
   18CHTO   O57 7313   6.456   7.700   4.412
   18CHTO   C85 7314   6.489   7.840   4.413
   18CHTO  H157 7315   6.592   7.848   4.372
   18CHTO   C83 7316   6.498   7.892   4.561
   18CHTO  H155 7317   6.581   7.841   4.610
   18CHTO   O56 7318   6.378   7.854   4.631
   18CHTO  H135 7319   6.386   7.876   4.722
   18CHTO   C81 7320   6.526   8.045   4.562
   18CHTO  H153 7321   6.619   8.062   4.508
   18CHTO   N14 7322   6.553   8.099   4.698
   18CHTO  H141 7323   6.491   8.183   4.719
   18CHTO  H142 7324   6.538   8.024   4.773
   18CHTO   C79 7325   6.411   8.120   4.486
   18CHTO  H151 7326   6.438   8.226   4.483
   18CHTO   O52 7327   6.405   8.074   4.347
   18CHTO   C86 7328   6.386   7.929   4.332
   18CHTO  H158 7329   6.282   7.911   4.365
   18CHTO   C90 7330   6.390   7.896   4.181
   18CHTO   O60 7331   6.346   7.763   4.152
   18CHTO  H138 7332   6.254   7.755   4.170
   18CHTO   O50 7333   6.282   8.107   4.549
   18CHTO   C73 7334   6.155   8.169   4.525
   18CHTO  H145 7335   6.130   8.164   4.418
   18CHTO   C74 7336   6.158   8.319   4.569
   18CHTO  H146 7337   6.240   8.368   4.514
   18CHTO   O54 7338   6.036   8.382   4.526
   18CHTO  H133 7339   6.032   8.385   4.432
   18CHTO   C75 7340   6.180   8.326   4.725
   18CHTO  H147 7341   6.276   8.277   4.749
   18CHTO   N13 7342   6.192   8.464   4.779
   18CHTO  H139 7343   6.101   8.519   4.759
   18CHTO  H140 7344   6.208   8.461   4.885
   18CHTO   C76 7345   6.064   8.242   4.797
   18CHTO  H148 7346   5.969   8.288   4.770
   18CHTO   O49 7347   6.067   8.104   4.748
   18CHTO   C77 7348   6.045   8.092   4.606
   18CHTO  H149 7349   5.947   8.132   4.580
   18CHTO   C88 7350   6.041   7.942   4.572
   18CHTO   O58 7351   6.005   7.918   4.432
   18CHTO  H136 7352   6.073   7.948   4.376
   18CHTO   O51 7353   6.086   8.235   4.956
   18CHTO   C78 7354   5.967   8.161   5.031
   18CHTO  H150 7355   5.923   8.082   4.966
   18CHTO   C80 7356   5.856   8.260   5.071
   18CHTO  H152 7357   5.902   8.343   5.130
   18CHTO   O55 7358   5.800   8.316   4.951
   18CHTO  H134 7359   5.862   8.373   4.909
   18CHTO   C84 7360   5.745   8.188   5.159
   18CHTO  H156 7361   5.697   8.113   5.096
   18CHTO   N15 7362   5.637   8.283   5.205
   18CHTO  H143 7363   5.633   8.288   5.312
   18CHTO  H144 7364   5.542   8.251   5.168
   18CHTO   C87 7365   5.814   8.116   5.277
   18CHTO  H159 7366   5.858   8.190   5.344
   18CHTO   O53 7367   5.921   8.021   5.224
   18CHTO   C82 7368   6.025   8.091   5.154
   18CHTO  H154 7369   6.074   8.163   5.221
   18CHTO   C89 7370   6.134   7.988   5.113
   18CHTO   O59 7371   6.198   7.930   5.227
   18CHTO  H137 7372   6.138   7.873   5.271
   18CHTO   O45 7373   5.708   8.022   5.361
   18CHTO   C67 7374   5.743   8.015   5.501
   18CHTO  H124 7375   5.843   8.057   5.516
   18CHTO   C65 7376   5.641   8.096   5.588
   18CHTO  H122 7377   5.543   8.080   5.542
   18CHTO   O44 7378   5.678   8.234   5.572
   18CHTO  H102 7379   5.613   8.289   5.610
   18CHTO   C63 7380   5.626   8.039   0.101
   18CHTO  H120 7381   5.553   7.958   0.099
   18CHTO   N11 7382   5.562   8.131   0.201
   18CHTO  H108 7383   5.542   8.078   0.292
   18CHTO  H109 7384   5.628   8.213   0.222
   18CHTO   C61 7385   5.761   7.972   0.148
   18CHTO  H118 7386   5.740   7.925   0.245
   18CHTO   O40 7387   5.803   7.865   0.058
   18CHTO   C68 7388   5.752   7.867   5.554
   18CHTO  H125 7389   5.650   7.821   5.555
   18CHTO   C72 7390   5.841   7.776   5.466
   18CHTO   O48 7391   5.978   7.818   5.462
   18CHTO  H105 7392   6.027   7.759   5.408
   18CHTO   O38 7393   5.866   8.070   0.164
   18CHTO   C55 7394   5.992   8.024   0.217
   18CHTO  H112 7395   6.009   7.919   0.189
   18CHTO   C56 7396   5.999   8.044   0.375
   18CHTO  H113 7397   5.977   8.150   0.395
   18CHTO   O42 7398   5.894   7.969   0.437
   18CHTO  H100 7399   5.892   7.987   0.529
   18CHTO   C57 7400   6.141   8.004   0.430
   18CHTO  H114 7401   6.149   7.896   0.419
   18CHTO   N10 7402   6.160   8.034   0.575
   18CHTO  H106 7403   6.066   8.027   0.628
   18CHTO  H107 7404   6.231   7.964   0.618
   18CHTO   C58 7405   6.254   8.072   0.347
   18CHTO  H115 7406   6.258   8.181   0.372
   18CHTO   O37 7407   6.233   8.057   0.206
   18CHTO   C59 7408   6.109   8.104   0.153
   18CHTO  H116 7409   6.099   8.211   0.174
   18CHTO   C70 7410   6.112   8.085   0.001
   18CHTO   O46 7411   6.212   8.165   5.571
   18CHTO  H103 7412   6.211   8.149   5.479
   18CHTO   O39 7413   6.407   7.999   0.382
   18CHTO   C60 7414   6.425   7.874   0.312
   18CHTO  H117 7415   6.327   7.829   0.294
   18CHTO   C62 7416   6.495   7.895   0.174
   18CHTO  H119 7417   6.439   7.976   0.122
   18CHTO   O43 7418   6.630   7.941   0.191
   18CHTO  H101 7419   6.669   7.958   0.107
   18CHTO   C66 7420   6.480   7.760   0.090
   18CHTO  H123 7421   6.374   7.734   0.086
   18CHTO   N12 7422   6.524   7.776   5.583
   18CHTO  H110 7423   6.607   7.710   5.560
   18CHTO  H111 7424   6.441   7.759   5.516
   18CHTO   C69 7425   6.551   7.644   0.165
   18CHTO  H126 7426   6.662   7.659   0.160
   18CHTO   O41 7427   6.506   7.637   0.320
   18CHTO   C64 7428   6.507   7.770   0.395
   18CHTO  H121 7429   6.612   7.805   0.407
   18CHTO   C71 7430   6.448   7.744   0.536
   18CHTO   O47 7431   6.467   7.855   0.624
   18CHTO  H104 7432   6.558   7.864   0.645
   18CHTO   O34 7433   6.518   7.510   0.099
   18CHTO   C49 7434   6.439   7.384   0.074
   18CHTO   H91 7435   6.510   7.314   0.031
   18CHTO   C47 7436   6.324   7.410   5.608
   18CHTO   H89 7437   6.289   7.307   5.582
   18CHTO   O33 7438   6.375   7.471   5.488
   18CHTO   H70 7439   6.309   7.472   5.422
   18CHTO   C45 7440   6.205   7.499   0.037
   18CHTO   H87 7441   6.225   7.605   0.015
   18CHTO    N8 7442   6.078   7.462   5.603
   18CHTO   H75 7443   5.998   7.528   0.001
   18CHTO   H76 7444   6.052   7.360   5.626
   18CHTO   C43 7445   6.205   7.488   0.197
   18CHTO   H85 7446   6.278   7.561   0.231
   18CHTO   O29 7447   6.242   7.354   0.235
   18CHTO   C50 7448   6.380   7.324   0.206
   18CHTO   H92 7449   6.440   7.360   0.291
   18CHTO   C54 7450   6.398   7.170   0.213
   18CHTO   O36 7451   6.536   7.131   0.208
   18CHTO   H72 7452   6.572   7.151   0.124
   18CHTO   O27 7453   6.081   7.531   0.258
   18CHTO   C37 7454   6.012   7.525   0.383
   18CHTO   H79 7455   5.984   7.422   0.406
   18CHTO   C38 7456   6.102   7.574   0.501
   18CHTO   H80 7457   6.146   7.671   0.473
   18CHTO   O31 7458   6.208   7.478   0.516
   18CHTO   H68 7459   6.266   7.482   0.443
   18CHTO   C39 7460   6.022   7.590   0.636
   18CHTO   H81 7461   5.996   7.489   0.671
   18CHTO    N7 7462   6.104   7.654   0.745
   18CHTO   H73 7463   6.190   7.593   0.766
   18CHTO   H74 7464   6.135   7.753   0.714
   18CHTO   C40 7465   5.886   7.667   0.614
   18CHTO   H82 7466   5.907   7.771   0.593
   18CHTO   O26 7467   5.815   7.604   0.505
   18CHTO   C41 7468   5.884   7.612   0.377
   18CHTO   H83 7469   5.911   7.716   0.354
   18CHTO   C52 7470   5.786   7.563   0.267
   18CHTO   O35 7471   5.664   7.649   0.256
   18CHTO   H71 7472   5.688   7.735   0.228
   18CHTO   O28 7473   5.802   7.666   0.732
   18CHTO   C42 7474   5.657   7.642   0.737
   18CHTO   H84 7475   5.631   7.669   0.839
   18CHTO   C44 7476   5.616   7.492   0.720
   18CHTO   H86 7477   5.659   7.454   0.628
   18CHTO   O32 7478   5.676   7.421   0.830
   18CHTO   H69 7479   5.661   7.329   0.821
   18CHTO   C48 7480   5.459   7.472   0.713
   18CHTO   H90 7481   5.415   7.499   0.809
   18CHTO    N9 7482   5.422   7.327   0.691
   18CHTO   H77 7483   5.314   7.317   0.689
   18CHTO   H78 7484   5.465   7.292   0.598
   18CHTO   C51 7485   5.404   7.567   0.601
   18CHTO   H93 7486   5.456   7.543   0.508
   18CHTO   O30 7487   5.429   7.701   0.644
   18CHTO   C46 7488   5.575   7.738   0.642
   18CHTO   H88 7489   5.611   7.730   0.540
   18CHTO   C53 7490   5.581   7.885   0.689
   18CHTO   O72 7491   5.713   7.940   0.679
   18CHTO  H199 7492   5.712   8.030   0.707
   18CHTO   O22 7493   5.261   7.559   0.582
   18CHTO   C31 7494   5.204   7.578   0.447
   18CHTO   H59 7495   5.093   7.581   0.461
   18CHTO   C29 7496   5.245   7.711   0.379
   18CHTO   H57 7497   5.355   7.717   0.383
   18CHTO   O21 7498   5.197   7.819   0.462
   18CHTO   H37 7499   5.103   7.823   0.458
   18CHTO   C27 7500   5.198   7.722   0.229
   18CHTO   H55 7501   5.088   7.723   0.226
   18CHTO    N5 7502   5.250   7.844   0.162
   18CHTO   H43 7503   5.167   7.906   0.129
   18CHTO   H44 7504   5.314   7.820   0.079
   18CHTO   C25 7505   5.245   7.591   0.156
   18CHTO   H53 7506   5.354   7.583   0.166
   18CHTO   O17 7507   5.182   7.476   0.221
   18CHTO   C32 7508   5.230   7.454   0.354
   18CHTO   H60 7509   5.338   7.435   0.351
   18CHTO   C36 7510   5.159   7.328   0.409
   18CHTO   O25 7511   5.197   7.210   0.336
   18CHTO   H40 7512   5.162   7.214   0.249
   18CHTO   O15 7513   5.207   7.586   0.003
   18CHTO   C19 7514   5.264   7.578   5.503
   18CHTO   H47 7515   5.229   7.480   5.465
   18CHTO   C20 7516   5.211   7.690   5.407
   18CHTO   H48 7517   5.234   7.790   5.446
   18CHTO   O19 7518   5.068   7.676   5.402
   18CHTO   H35 7519   5.030   7.701   5.484
   18CHTO   C21 7520   5.274   7.678   5.262
   18CHTO   H49 7521   5.238   7.586   5.217
   18CHTO    N4 7522   5.233   7.789   5.172
   18CHTO   H41 7523   5.125   7.790   5.161
   18CHTO   H42 7524   5.278   7.776   5.075
   18CHTO   C22 7525   5.428   7.665   5.274
   18CHTO   H50 7526   5.470   7.760   5.308
   18CHTO   O14 7527   5.465   7.559   5.363
   18CHTO   C23 7528   5.420   7.574   5.499
   18CHTO   H51 7529   5.464   7.666   5.539
   18CHTO   C34 7530   5.477   7.455   5.577
   18CHTO   O23 7531   5.620   7.461   5.584
   18CHTO   H38 7532   5.647   7.532   0.005
   18CHTO   O16 7533   5.487   7.624   5.149
   18CHTO   C24 7534   5.631   7.683   5.118
   18CHTO   H52 7535   5.673   7.736   5.204
   18CHTO   C26 7536   5.619   7.779   4.998
   18CHTO   H54 7537   5.557   7.730   4.920
   18CHTO   O20 7538   5.547   7.897   5.042
   18CHTO   H36 7539   5.458   7.875   5.061
   18CHTO   C30 7540   5.757   7.816   4.936
   18CHTO   H58 7541   5.815   7.878   5.006
   18CHTO    N6 7542   5.741   7.896   4.811
   18CHTO   H45 7543   5.689   7.988   4.833
   18CHTO   H46 7544   5.838   7.919   4.770
   18CHTO   C33 7545   5.841   7.686   4.913
   18CHTO   H61 7546   5.788   7.621   4.842
   18CHTO   O18 7547   5.851   7.617   5.039
   18CHTO   C28 7548   5.727   7.565   5.088
   18CHTO   H56 7549   5.681   7.500   5.013
   18CHTO   C35 7550   5.755   7.482   5.215
   18CHTO   O24 7551   5.837   7.368   5.189
   18CHTO   H39 7552   5.855   7.323   5.270
   18CHTO    O9 7553   5.971   7.710   4.856
   18CHTO   C13 7554   6.040   7.592   4.750
   18CHTO   H26 7555   6.033   7.636   4.648
   18CHTO   C11 7556   5.970   7.449   4.756
   18CHTO   H24 7557   5.869   7.459   4.714
   18CHTO    O8 7558   5.958   7.402   4.892
   18CHTO    H3 7559   5.902   7.459   4.941
   18CHTO    C9 7560   6.053   7.352   4.668
   18CHTO   H22 7561   6.068   7.404   4.572
   18CHTO    N2 7562   5.981   7.228   4.632
   18CHTO   H10 7563   5.887   7.252   4.585
   18CHTO   H11 7564   5.965   7.167   4.720
   18CHTO    C7 7565   6.195   7.331   4.735
   18CHTO   H20 7566   6.265   7.320   4.649
   18CHTO    O4 7567   6.236   7.443   4.817
   18CHTO   C14 7568   6.197   7.576   4.776
   18CHTO   H27 7569   6.250   7.597   4.681
   18CHTO   C18 7570   6.252   7.675   4.882
   18CHTO   O13 7571   6.204   7.647   5.014
   18CHTO    H7 7572   6.241   7.567   5.045
   18CHTO    O2 7573   6.203   7.192   4.831
   18CHTO    C1 7574   6.329   7.171   4.896
   18CHTO   H14 7575   6.391   7.263   4.891
   18CHTO    C2 7576   6.413   7.051   4.835
   18CHTO   H15 7577   6.350   6.962   4.842
   18CHTO    O6 7578   6.441   7.079   4.697
   18CHTO    H1 7579   6.495   7.156   4.689
   18CHTO    C3 7580   6.548   7.030   4.920
   18CHTO   H16 7581   6.614   7.116   4.903
   18CHTO    N1 7582   6.624   6.908   4.877
   18CHTO    H8 7583   6.563   6.820   4.889
   18CHTO    H9 7584   6.655   6.918   4.774
   18CHTO    C4 7585   6.519   7.029   5.076
   18CHTO   H17 7586   6.476   6.932   5.103
   18CHTO    O1 7587   6.431   7.135   5.116
   18CHTO    C5 7588   6.306   7.142   5.047
   18CHTO   H18 7589   6.255   7.045   5.055
   18CHTO   C16 7590   6.218   7.249   5.117
   18CHTO   O11 7591   6.282   7.377   5.119
   18CHTO    H5 7592   6.226   7.440   5.161
   18CHTO    O3 7593   6.641   7.053   5.150
   18CHTO    C6 7594   6.640   7.002   5.287
   18CHTO   H19 7595   6.542   6.963   5.317
   18CHTO    C8 7596   6.745   6.887   5.302
   18CHTO   H21 7597   6.843   6.927   5.278
   18CHTO    O7 7598   6.711   6.784   5.207
   18CHTO    H2 7599   6.628   6.746   5.227
   18CHTO   C12 7600   6.745   6.832   5.451
   18CHTO   H25 7601   6.645   6.786   5.467
   18CHTO    N3 7602   6.846   6.724   5.472
   18CHTO   H12 7603   6.920   6.753   5.545
   18CHTO   H13 7604   6.895   6.696   5.379
   18CHTO   C15 7605   6.760   6.953   5.551
   18CHTO   H28 7606   6.862   6.993   5.549
   18CHTO   O10 7607   6.723   6.913   0.064
   18CHTO    H4 7608   6.637   6.877   0.067
   18CHTO    O5 7609   6.666   7.058   5.523
   18CHTO   C10 7610   6.677   7.113   5.390
   18CHTO   H23 7611   6.780   7.147   5.374
   18CHTO   C17 7612   6.586   7.235   5.385
   18CHTO   O12 7613   6.611   7.317   5.270
   18CHTO    H6 7614   6.694   7.360   5.279
   19CHTO  H203 7615   6.784   8.393   1.209
   19CHTO   O82 7616   6.770   8.303   1.184
   19CHTO  C123 7617   6.650   8.293   1.106
   19CHTO  H227 7618   6.661   8.354   1.015
   19CHTO   O77 7619   6.649   8.151   1.069
   19CHTO  C118 7620   6.538   8.109   0.989
   19CHTO  H222 7621   6.536   8.167   0.895
   19CHTO  C125 7622   6.558   7.957   0.953
   19CHTO   O84 7623   6.565   7.874   1.070
   19CHTO  H205 7624   6.643   7.893   1.118
   19CHTO  C114 7625   6.406   8.133   1.066
   19CHTO  H218 7626   6.411   8.078   1.160
   19CHTO  C116 7627   6.393   8.285   1.102
   19CHTO  H220 7628   6.386   8.345   1.008
   19CHTO   O79 7629   6.270   8.305   1.173
   19CHTO  H201 7630   6.197   8.289   1.117
   19CHTO  C120 7631   6.520   8.330   1.186
   19CHTO  H224 7632   6.517   8.274   1.281
   19CHTO   N21 7633   6.517   8.475   1.220
   19CHTO  H211 7634   6.466   8.490   1.314
   19CHTO  H212 7635   6.470   8.532   1.141
   19CHTO   O75 7636   6.301   8.084   0.983
   19CHTO  C112 7637   6.183   8.008   1.070
   19CHTO  H216 7638   6.160   8.068   1.159
   19CHTO   O73 7639   6.233   7.878   1.105
   19CHTO  C113 7640   6.143   7.801   1.186
   19CHTO  H217 7641   6.114   7.861   1.276
   19CHTO  C124 7642   6.214   7.675   1.236
   19CHTO   O83 7643   6.326   7.705   1.320
   19CHTO  H204 7644   6.366   7.625   1.349
   19CHTO  C109 7645   6.015   7.768   1.104
   19CHTO  H213 7646   6.048   7.708   1.018
   19CHTO  C110 7647   5.949   7.901   1.056
   19CHTO  H214 7648   5.909   7.953   1.144
   19CHTO   O78 7649   5.838   7.870   0.970
   19CHTO  H200 7650   5.790   7.948   0.949
   19CHTO  C111 7651   6.052   7.992   0.983
   19CHTO  H215 7652   6.080   7.944   0.888
   19CHTO   N19 7653   5.998   8.126   0.948
   19CHTO  H207 7654   6.073   8.184   0.896
   19CHTO  H208 7655   5.911   8.115   0.885
   19CHTO   O74 7656   5.924   7.687   1.184
   19CHTO  C115 7657   5.829   7.587   1.099
   19CHTO  H219 7658   5.769   7.642   1.026
   19CHTO   O76 7659   5.914   7.484   1.012
   19CHTO  C122 7660   5.982   7.386   1.091
   19CHTO  H226 7661   6.058   7.438   1.149
   19CHTO  C126 7662   6.060   7.289   0.995
   19CHTO   O85 7663   6.163   7.356   0.920
   19CHTO  H206 7664   6.202   7.295   0.861
   19CHTO  C121 7665   5.885   7.305   1.187
   19CHTO  H225 7666   5.884   7.199   1.155
   19CHTO   O81 7667   5.938   7.307   1.321
   19CHTO  H202 7668   5.939   7.395   1.354
   19CHTO  C119 7669   5.739   7.359   1.184
   19CHTO  H223 7670   5.701   7.336   1.084
   19CHTO  C117 7671   5.734   7.515   1.203
   19CHTO  H221 7672   5.767   7.550   1.301
   19CHTO   N20 7673   5.593   7.567   1.191
   19CHTO  H209 7674   5.530   7.520   1.264
   19CHTO  H210 7675   5.555   7.548   1.091
   19CHTO   O80 7676   5.640   7.274   1.276
   19CHTO  C103 7677   5.594   7.134   1.230
   19CHTO  H190 7678   5.618   7.118   1.125
   19CHTO  C101 7679   5.648   7.012   1.314
   19CHTO  H188 7680   5.630   7.031   1.420
   19CHTO   O68 7681   5.801   6.999   1.293
   19CHTO  H168 7682   5.836   6.932   1.348
   19CHTO   C99 7683   5.570   6.877   1.274
   19CHTO  H186 7684   5.588   6.855   1.166
   19CHTO   N17 7685   5.613   6.756   1.351
   19CHTO  H174 7686   5.560   6.669   1.314
   19CHTO  H175 7687   5.720   6.743   1.343
   19CHTO   C97 7688   5.418   6.903   1.287
   19CHTO  H184 7689   5.395   6.924   1.393
   19CHTO   O64 7690   5.380   7.013   1.202
   19CHTO  C104 7691   5.436   7.139   1.242
   19CHTO  H191 7692   5.409   7.162   1.345
   19CHTO  C108 7693   5.374   7.249   1.155
   19CHTO   O71 7694   5.399   7.231   1.016
   19CHTO  H171 7695   5.352   7.157   0.984
   19CHTO   O62 7696   5.337   6.792   1.242
   19CHTO   C91 7697   5.196   6.804   1.267
   19CHTO  H178 7698   5.177   6.894   1.326
   19CHTO   C92 7699   5.150   6.684   1.357
   19CHTO  H179 7700   5.214   6.679   1.447
   19CHTO   O66 7701   5.018   6.713   1.406
   19CHTO  H166 7702   5.020   6.786   1.464
   19CHTO   C93 7703   5.146   6.547   1.279
   19CHTO  H180 7704   5.064   6.486   1.322
   19CHTO   N16 7705   5.269   6.466   1.298
   19CHTO  H172 7706   5.283   6.445   1.403
   19CHTO  H173 7707   5.261   6.373   1.242
   19CHTO   C94 7708   5.116   6.570   1.126
   19CHTO  H181 7709   5.208   6.587   1.068
   19CHTO   O61 7710   5.036   6.689   1.108
   19CHTO   C95 7711   5.110   6.810   1.133
   19CHTO  H182 7712   5.178   6.827   1.050
   19CHTO  C106 7713   5.011   6.931   1.134
   19CHTO   O69 7714   4.957   6.953   1.003
   19CHTO  H169 7715   4.898   7.026   1.004
   19CHTO   O63 7716   5.037   6.450   1.066
   19CHTO   C96 7717   5.101   6.401   0.931
   19CHTO  H183 7718   5.205   6.374   0.951
   19CHTO   C98 7719   5.100   6.507   0.815
   19CHTO  H185 7720   5.129   6.605   0.853
   19CHTO   O67 7721   5.199   6.471   0.718
   19CHTO  H167 7722   5.285   6.478   0.755
   19CHTO  C102 7723   4.958   6.514   0.740
   19CHTO  H189 7724   4.976   6.577   0.651
   19CHTO   N18 7725   4.849   6.582   0.814
   19CHTO  H176 7726   4.884   6.617   0.911
   19CHTO  H177 7727   4.811   6.666   0.757
   19CHTO  C105 7728   4.919   6.371   0.692
   19CHTO  H192 7729   4.815   6.350   0.718
   19CHTO   O65 7730   4.999   6.263   0.745
   19CHTO  C100 7731   5.023   6.270   0.887
   19CHTO  H187 7732   4.925   6.270   0.937
   19CHTO  C107 7733   5.099   6.143   0.932
   19CHTO   O70 7734   5.018   6.026   0.917
   19CHTO  H170 7735   4.947   6.027   0.979
   19CHTO   O57 7736   4.935   6.380   0.535
   19CHTO   C85 7737   4.831   6.326   0.452
   19CHTO  H157 7738   4.750   6.291   0.519
   19CHTO   C83 7739   4.882   6.198   0.379
   19CHTO  H155 7740   4.912   6.126   0.456
   19CHTO   O56 7741   5.000   6.229   0.303
   19CHTO  H135 7742   5.036   6.151   0.266
   19CHTO   C81 7743   4.765   6.137   0.297
   19CHTO  H153 7744   4.684   6.113   0.366
   19CHTO   N14 7745   4.799   6.006   0.236
   19CHTO  H141 7746   4.834   5.938   0.311
   19CHTO  H142 7747   4.713   5.964   0.188
   19CHTO   C79 7748   4.710   6.243   0.193
   19CHTO  H151 7749   4.620   6.201   0.149
   19CHTO   O52 7750   4.671   6.367   0.259
   19CHTO   C86 7751   4.777   6.426   0.342
   19CHTO  H158 7752   4.857   6.452   0.269
   19CHTO   C90 7753   4.731   6.560   0.403
   19CHTO   O60 7754   4.623   6.542   0.495
   19CHTO  H138 7755   4.598   6.625   0.531
   19CHTO   O50 7756   4.802   6.273   0.086
   19CHTO   C73 7757   4.821   6.295   5.579
   19CHTO  H145 7758   4.792   6.206   5.523
   19CHTO   C74 7759   4.972   6.323   5.552
   19CHTO  H146 7760   5.029   6.238   5.592
   19CHTO   O54 7761   4.992   6.322   5.409
   19CHTO  H133 7762   5.083   6.334   5.389
   19CHTO   C75 7763   5.013   6.459   5.621
   19CHTO  H147 7764   5.001   6.448   0.096
   19CHTO   N13 7765   5.155   6.496   5.601
   19CHTO  H139 7766   5.220   6.420   0.009
   19CHTO  H140 7767   5.177   6.506   5.496
   19CHTO   C76 7768   4.915   6.576   5.574
   19CHTO  H148 7769   4.931   6.593   5.467
   19CHTO   O49 7770   4.775   6.537   5.597
   19CHTO   C77 7771   4.738   6.417   5.528
   19CHTO  H149 7772   4.754   6.429   5.421
   19CHTO   C88 7773   4.586   6.394   5.544
   19CHTO   O58 7774   4.508   6.505   5.485
   19CHTO  H136 7775   4.520   6.583   5.535
   19CHTO   O51 7776   4.935   6.710   0.027
   19CHTO   C78 7777   4.910   6.843   5.576
   19CHTO  H150 7778   4.881   6.820   5.471
   19CHTO   C80 7779   5.038   6.929   5.574
   19CHTO  H152 7780   5.071   6.946   0.045
   19CHTO   O55 7781   5.141   6.853   5.508
   19CHTO  H134 7782   5.119   6.838   5.418
   19CHTO   C84 7783   5.014   7.069   5.503
   19CHTO  H156 7784   4.991   7.049   5.398
   19CHTO   N15 7785   5.134   7.160   5.506
   19CHTO  H143 7786   5.166   7.183   5.406
   19CHTO  H144 7787   5.216   7.114   5.558
   19CHTO   C87 7788   4.892   7.139   5.567
   19CHTO  H159 7789   4.914   7.167   0.036
   19CHTO   O53 7790   4.771   7.043   5.563
   19CHTO   C82 7791   4.794   6.923   0.005
   19CHTO  H154 7792   4.815   6.947   0.109
   19CHTO   C89 7793   4.664   6.838   0.004
   19CHTO   O59 7794   4.556   6.904   0.070
   19CHTO  H137 7795   4.573   6.909   0.162
   19CHTO   O45 7796   4.849   7.272   5.483
   19CHTO   C67 7797   4.756   7.355   5.554
   19CHTO  H124 7798   4.703   7.294   5.628
   19CHTO   C65 7799   4.828   7.472   5.629
   19CHTO  H122 7800   4.910   7.504   5.564
   19CHTO   O44 7801   4.883   7.416   0.116
   19CHTO  H102 7802   4.950   7.354   0.095
   19CHTO   C63 7803   4.736   7.601   0.009
   19CHTO  H120 7804   4.746   7.659   5.551
   19CHTO   N11 7805   4.780   7.703   0.110
   19CHTO  H108 7806   4.722   7.792   0.100
   19CHTO  H109 7807   4.884   7.726   0.097
   19CHTO   C61 7808   4.585   7.560   0.017
   19CHTO  H118 7809   4.528   7.654   0.021
   19CHTO   O40 7810   4.545   7.492   5.528
   19CHTO   C68 7811   4.643   7.409   5.458
   19CHTO  H125 7812   4.690   7.470   5.378
   19CHTO   C72 7813   4.567   7.293   5.387
   19CHTO   O48 7814   4.499   7.205   5.477
   19CHTO  H105 7815   4.562   7.157   5.528
   19CHTO   O38 7816   4.553   7.482   0.136
   19CHTO   C55 7817   4.431   7.404   0.135
   19CHTO  H112 7818   4.419   7.355   0.038
   19CHTO   C56 7819   4.304   7.489   0.175
   19CHTO  H113 7820   4.322   7.532   0.275
   19CHTO   O42 7821   4.289   7.601   0.084
   19CHTO  H100 7822   4.219   7.656   0.112
   19CHTO   C57 7823   4.173   7.400   0.174
   19CHTO  H114 7824   4.149   7.382   0.069
   19CHTO   N10 7825   4.055   7.469   0.233
   19CHTO  H106 7826   3.986   7.399   0.277
   19CHTO  H107 7827   4.004   7.527   0.158
   19CHTO   C58 7828   4.196   7.262   0.243
   19CHTO  H115 7829   4.190   7.275   0.354
   19CHTO   O37 7830   4.323   7.203   0.211
   19CHTO   C59 7831   4.438   7.286   0.237
   19CHTO  H116 7832   4.436   7.322   0.340
   19CHTO   C70 7833   4.561   7.197   0.218
   19CHTO   O46 7834   4.682   7.258   0.262
   19CHTO  H103 7835   4.754   7.199   0.248
   19CHTO   O39 7836   4.076   7.152   0.191
   19CHTO   C60 7837   4.094   7.095   0.060
   19CHTO  H117 7838   4.153   7.163   5.632
   19CHTO   C62 7839   4.172   6.959   0.066
   19CHTO  H119 7840   4.273   6.981   0.107
   19CHTO   O43 7841   4.105   6.869   0.156
   19CHTO  H101 7842   4.110   6.901   0.244
   19CHTO   C66 7843   4.188   6.896   5.553
   19CHTO  H123 7844   4.239   6.969   5.489
   19CHTO   N12 7845   4.273   6.774   5.552
   19CHTO  H110 7846   4.217   6.688   5.517
   19CHTO  H111 7847   4.361   6.790   5.491
   19CHTO   C69 7848   4.047   6.874   5.492
   19CHTO  H126 7849   3.989   6.804   5.556
   19CHTO   O41 7850   3.975   7.009   5.486
   19CHTO   C64 7851   3.957   7.076   5.622
   19CHTO  H121 7852   3.890   7.014   0.052
   19CHTO   C71 7853   3.886   7.211   5.594
   19CHTO   O47 7854   3.833   7.270   0.080
   19CHTO  H104 7855   3.790   7.351   0.059
   19CHTO   O34 7856   4.054   6.814   5.349
   19CHTO   C49 7857   3.972   6.774   5.231
   19CHTO   H91 7858   3.869   6.804   5.252
   19CHTO   C47 7859   3.981   6.621   5.214
   19CHTO   H89 7860   3.908   6.597   5.133
   19CHTO   O33 7861   3.938   6.552   5.333
   19CHTO   H70 7862   3.847   6.570   5.350
   19CHTO   C45 7863   4.131   6.574   5.175
   19CHTO   H87 7864   4.185   6.549   5.268
   19CHTO    N8 7865   4.121   6.452   5.092
   19CHTO   H75 7866   4.221   6.415   5.069
   19CHTO   H76 7867   4.067   6.375   5.145
   19CHTO   C43 7868   4.214   6.697   5.111
   19CHTO   H85 7869   4.250   6.755   5.196
   19CHTO   O29 7870   4.127   6.774   5.027
   19CHTO   C50 7871   4.021   6.841   5.099
   19CHTO   H92 7872   4.059   6.941   5.125
   19CHTO   C54 7873   3.905   6.874   5.001
   19CHTO   O36 7874   3.857   6.757   4.932
   19CHTO   H72 7875   3.813   6.701   4.993
   19CHTO   O27 7876   4.335   6.659   5.042
   19CHTO   C37 7877   4.448   6.731   4.990
   19CHTO   H79 7878   4.500   6.670   4.915
   19CHTO   C38 7879   4.403   6.862   4.918
   19CHTO   H80 7880   4.338   6.919   4.987
   19CHTO   O31 7881   4.325   6.824   4.803
   19CHTO   H68 7882   4.243   6.787   4.829
   19CHTO   C39 7883   4.525   6.952   4.876
   19CHTO   H81 7884   4.576   6.901   4.795
   19CHTO    N7 7885   4.483   7.087   4.823
   19CHTO   H73 7886   4.421   7.074   4.735
   19CHTO   H74 7887   4.429   7.141   4.899
   19CHTO   C40 7888   4.629   6.968   4.993
   19CHTO   H82 7889   4.591   7.037   5.069
   19CHTO   O26 7890   4.662   6.840   5.050
   19CHTO   C41 7891   4.548   6.766   5.103
   19CHTO   H83 7892   4.497   6.828   5.179
   19CHTO   C52 7893   4.601   6.640   5.175
   19CHTO   O35 7894   4.679   6.550   5.085
   19CHTO   H71 7895   4.707   6.474   5.134
   19CHTO   O28 7896   4.754   7.017   4.942
   19CHTO   C42 7897   4.857   7.078   5.027
   19CHTO   H84 7898   4.841   7.037   5.127
   19CHTO   C44 7899   4.850   7.234   5.042
   19CHTO   H86 7900   4.850   7.279   4.942
   19CHTO   O32 7901   4.723   7.266   5.102
   19CHTO   H69 7902   4.719   7.233   5.189
   19CHTO   C48 7903   4.974   7.294   5.122
   19CHTO   H90 7904   4.971   7.255   5.224
   19CHTO    N9 7905   4.969   7.443   5.134
   19CHTO   H77 7906   4.881   7.473   5.188
   19CHTO   H78 7907   4.969   7.488   5.036
   19CHTO   C51 7908   5.104   7.243   5.051
   19CHTO   H93 7909   5.098   7.272   4.946
   19CHTO   O30 7910   5.106   7.100   5.067
   19CHTO   C46 7911   4.999   7.033   4.982
   19CHTO   H88 7912   5.014   7.062   4.878
   19CHTO   C53 7913   5.015   6.880   4.997
   19CHTO   O72 7914   5.139   6.836   4.942
   19CHTO  H199 7915   5.211   6.868   4.994
   19CHTO   O22 7916   5.228   7.292   5.108
   19CHTO   C31 7917   5.353   7.253   5.040
   19CHTO   H59 7918   5.332   7.156   4.991
   19CHTO   C29 7919   5.405   7.347   4.929
   19CHTO   H57 7920   5.447   7.438   4.976
   19CHTO   O21 7921   5.296   7.388   4.846
   19CHTO   H37 7922   5.324   7.453   4.784
   19CHTO   C27 7923   5.518   7.274   4.846
   19CHTO   H55 7924   5.472   7.190   4.793
   19CHTO    N5 7925   5.584   7.362   4.745
   19CHTO   H43 7926   5.552   7.464   4.756
   19CHTO   H44 7927   5.562   7.326   4.645
   19CHTO   C25 7928   5.627   7.210   4.941
   19CHTO   H53 7929   5.704   7.285   4.968
   19CHTO   O17 7930   5.576   7.156   5.067
   19CHTO   C32 7931   5.472   7.227   5.136
   19CHTO   H60 7932   5.511   7.323   5.171
   19CHTO   C36 7933   5.431   7.144   5.261
   19CHTO   O25 7934   5.380   7.015   5.226
   19CHTO   H40 7935   5.298   7.024   5.183
   19CHTO   O15 7936   5.701   7.088   4.860
   19CHTO   C19 7937   5.680   6.944   4.882
   19CHTO   H47 7938   5.687   6.934   4.991
   19CHTO   C20 7939   5.543   6.888   4.835
   19CHTO   H48 7940   5.529   6.899   4.727
   19CHTO   O19 7941   5.440   6.963   4.901
   19CHTO   H35 7942   5.356   6.940   4.866
   19CHTO   C21 7943   5.528   6.735   4.873
   19CHTO   H49 7944   5.525   6.726   4.981
   19CHTO    N4 7945   5.401   6.674   4.822
   19CHTO   H41 7946   5.340   6.640   4.905
   19CHTO   H42 7947   5.345   6.744   4.763
   19CHTO   C22 7948   5.653   6.656   4.825
   19CHTO   H50 7949   5.651   6.647   4.716
   19CHTO   O14 7950   5.775   6.719   4.868
   19CHTO   C23 7951   5.793   6.854   4.823
   19CHTO   H51 7952   5.792   6.853   4.713
   19CHTO   C34 7953   5.934   6.901   4.865
   19CHTO   O23 7954   5.953   6.900   5.007
   19CHTO   H38 7955   5.955   6.812   5.038
   19CHTO   O16 7956   5.656   6.526   4.888
   19CHTO   C24 7957   5.709   6.396   4.800
   19CHTO   H52 7958   5.725   6.309   4.863
   19CHTO   C26 7959   5.842   6.428   4.729
   19CHTO   H54 7960   5.826   6.516   4.661
   19CHTO   O20 7961   5.938   6.464   4.829
   19CHTO   H36 7962   5.916   6.548   4.867
   19CHTO   C30 7963   5.889   6.307   4.643
   19CHTO   H58 7964   5.912   6.223   4.709
   19CHTO    N6 7965   6.014   6.337   4.567
   19CHTO   H45 7966   6.049   6.437   4.587
   19CHTO   H46 7967   6.092   6.267   4.594
   19CHTO   C33 7968   5.774   6.258   4.549
   19CHTO   H61 7969   5.758   6.331   4.468
   19CHTO   O18 7970   5.652   6.242   4.622
   19CHTO   C28 7971   5.603   6.356   4.694
   19CHTO   H56 7972   5.586   6.440   4.626
   19CHTO   C35 7973   5.470   6.315   4.761
   19CHTO   O24 7974   5.366   6.284   4.667
   19CHTO   H39 7975   5.340   6.362   4.622
   19CHTO    O9 7976   5.810   6.135   4.482
   19CHTO   C13 7977   5.826   6.138   4.322
   19CHTO   H26 7978   5.884   6.228   4.294
   19CHTO   C11 7979   5.685   6.130   4.244
   19CHTO   H24 7980   5.694   6.196   4.156
   19CHTO    O8 7981   5.584   6.188   4.329
   19CHTO    H3 7982   5.503   6.197   4.281
   19CHTO    C9 7983   5.657   5.987   4.190
   19CHTO   H22 7984   5.721   5.976   4.102
   19CHTO    N2 7985   5.521   5.965   4.135
   19CHTO   H10 7986   5.448   5.971   4.214
   19CHTO   H11 7987   5.500   6.039   4.059
   19CHTO    C7 7988   5.702   5.882   4.297
   19CHTO   H20 7989   5.680   5.782   4.252
   19CHTO    O4 7990   5.845   5.889   4.323
   19CHTO   C14 7991   5.914   6.011   4.287
   19CHTO   H27 7992   5.933   6.010   4.177
   19CHTO   C18 7993   6.051   6.014   4.357
   19CHTO   O13 7994   6.140   5.915   4.303
   19CHTO    H7 7995   6.110   5.829   4.327
   19CHTO    O2 7996   5.620   5.901   4.440
   19CHTO    C1 7997   5.615   5.780   4.516
   19CHTO   H14 7998   5.705   5.718   4.493
   19CHTO    C2 7999   5.487   5.692   4.492
   19CHTO   H15 8000   5.400   5.751   4.524
   19CHTO    O6 8001   5.477   5.663   4.351
   19CHTO    H1 8002   5.397   5.618   4.333
   19CHTO    C3 8003   5.498   5.558   4.578
   19CHTO   H16 8004   5.583   5.503   4.536
   19CHTO    N1 8005   5.379   5.467   4.565
   19CHTO    H8 8006   5.307   5.508   4.495
   19CHTO    H9 8007   5.331   5.452   4.661
   19CHTO    C4 8008   5.537   5.588   4.729
   19CHTO   H17 8009   5.447   5.616   4.784
   19CHTO    O1 8010   5.639   5.688   4.743
   19CHTO    C5 8011   5.622   5.810   4.669
   19CHTO   H18 8012   5.529   5.858   4.698
   19CHTO   C16 8013   5.740   5.904   4.706
   19CHTO   O11 8014   5.867   5.852   4.665
   19CHTO    H5 8015   5.887   5.776   4.715
   19CHTO    O3 8016   5.599   5.470   4.786
   19CHTO    C6 8017   5.568   5.436   4.925
   19CHTO   H19 8018   5.518   5.516   4.979
   19CHTO    C8 8019   5.475   5.310   4.926
   19CHTO   H21 8020   5.518   5.235   4.859
   19CHTO    O7 8021   5.347   5.353   4.874
   19CHTO    H2 8022   5.290   5.279   4.863
   19CHTO   C12 8023   5.460   5.248   5.071
   19CHTO   H25 8024   5.399   5.321   5.129
   19CHTO    N3 8025   5.381   5.119   5.067
   19CHTO   H12 8026   5.294   5.126   5.130
   19CHTO   H13 8027   5.443   5.036   5.096
   19CHTO   C15 8028   5.600   5.234   5.139
   19CHTO   H28 8029   5.661   5.156   5.092
   19CHTO   O10 8030   5.589   5.206   5.291
   19CHTO    H4 8031   5.674   5.189   5.327
   19CHTO    O5 8032   5.670   5.360   5.136
   19CHTO   C10 8033   5.700   5.405   5.003
   19CHTO   H23 8034   5.757   5.327   4.952
   19CHTO   C17 8035   5.793   5.526   5.021
   19CHTO   O12 8036   5.852   5.570   4.899
   19CHTO    H6 8037   5.913   5.505   4.867
   20CHTO  H203 8038   5.662   1.430   0.225
   20CHTO   O82 8039   5.691   1.437   0.314
   20CHTO  C123 8040   5.670   1.571   0.362
   20CHTO  H227 8041   5.704   1.642   0.284
   20CHTO   O77 8042   5.525   1.579   0.377
   20CHTO  C118 8043   5.477   1.706   0.424
   20CHTO  H222 8044   5.512   1.785   0.355
   20CHTO  C125 8045   5.319   1.703   0.420
   20CHTO   O84 8046   5.264   1.608   0.511
   20CHTO  H205 8047   5.281   1.635   0.600
   20CHTO  C114 8048   5.532   1.732   0.565
   20CHTO  H218 8049   5.506   1.647   0.629
   20CHTO  C116 8050   5.689   1.734   0.560
   20CHTO  H220 8051   5.723   1.820   0.498
   20CHTO   O79 8052   5.738   1.757   0.694
   20CHTO  H201 8053   5.831   1.766   0.692
   20CHTO  C120 8054   5.742   1.598   0.499
   20CHTO  H224 8055   5.716   1.518   0.572
   20CHTO   N21 8056   5.891   1.600   0.486
   20CHTO  H211 8057   5.936   1.564   0.578
   20CHTO  H212 8058   5.922   1.539   0.403
   20CHTO   O75 8059   5.467   1.849   0.618
   20CHTO  C112 8060   5.499   1.995   0.550
   20CHTO  H216 8061   5.491   1.986   0.441
   20CHTO   O73 8062   5.631   2.034   0.591
   20CHTO  C113 8063   5.679   2.146   0.515
   20CHTO  H217 8064   5.672   2.121   0.407
   20CHTO  C124 8065   5.828   2.162   0.549
   20CHTO   O83 8066   5.894   2.255   0.463
   20CHTO  H204 8067   5.984   2.262   0.489
   20CHTO  C109 8068   5.594   2.273   0.545
   20CHTO  H213 8069   5.621   2.306   0.647
   20CHTO  C110 8070   5.441   2.243   0.535
   20CHTO  H214 8071   5.414   2.242   0.429
   20CHTO   O78 8072   5.369   2.354   0.592
   20CHTO  H200 8073   5.387   2.361   0.684
   20CHTO  C111 8074   5.400   2.107   0.600
   20CHTO  H215 8075   5.411   2.116   0.709
   20CHTO   N19 8076   5.259   2.069   0.573
   20CHTO  H207 8077   5.192   2.144   0.614
   20CHTO  H208 8078   5.242   2.060   0.467
   20CHTO   O74 8079   5.628   2.377   0.449
   20CHTO  C115 8080   5.686   2.519   0.502
   20CHTO  H219 8081   5.607   2.581   0.547
   20CHTO   O76 8082   5.794   2.500   0.616
   20CHTO  C122 8083   5.873   2.616   0.648
   20CHTO  H226 8084   5.951   2.584   0.717
   20CHTO  C126 8085   5.789   2.724   0.725
   20CHTO   O85 8086   5.742   2.677   0.852
   20CHTO  H206 8087   5.691   2.744   0.893
   20CHTO  C121 8088   5.943   2.676   0.520
   20CHTO  H225 8089   5.995   2.769   0.550
   20CHTO   O81 8090   6.041   2.583   0.473
   20CHTO  H202 8091   6.094   2.623   0.406
   20CHTO  C119 8092   5.840   2.710   0.407
   20CHTO  H223 8093   5.782   2.795   0.444
   20CHTO  C117 8094   5.742   2.591   0.374
   20CHTO  H221 8095   5.786   2.511   0.315
   20CHTO   N20 8096   5.627   2.641   0.291
   20CHTO  H209 8097   5.664   2.690   0.202
   20CHTO  H210 8098   5.563   2.558   0.263
   20CHTO   O80 8099   5.910   2.772   0.278
   20CHTO  C103 8100   5.936   2.926   0.268
   20CHTO  H190 8101   5.873   2.982   0.337
   20CHTO  C101 8102   6.087   2.970   0.289
   20CHTO  H188 8103   6.151   2.896   0.241
   20CHTO   O68 8104   6.118   2.969   0.442
   20CHTO  H168 8105   6.210   2.985   0.456
   20CHTO   C99 8106   6.118   3.113   0.222
   20CHTO  H186 8107   6.059   3.191   0.273
   20CHTO   N17 8108   6.262   3.154   0.230
   20CHTO  H174 8109   6.324   3.083   0.176
   20CHTO  H175 8110   6.292   3.161   0.333
   20CHTO   C97 8111   6.066   3.110   0.075
   20CHTO  H184 8112   6.118   3.029   0.022
   20CHTO   O64 8113   5.924   3.089   0.079
   20CHTO  C104 8114   5.887   2.958   0.121
   20CHTO  H191 8115   5.926   2.882   0.053
   20CHTO  C108 8116   5.734   2.947   0.113
   20CHTO   O71 8117   5.686   2.949   5.612
   20CHTO  H171 8118   5.713   2.871   5.568
   20CHTO   O62 8119   6.080   3.235   0.003
   20CHTO   C91 8120   6.087   3.223   5.493
   20CHTO  H178 8121   6.080   3.118   5.464
   20CHTO   C92 8122   6.227   3.273   5.443
   20CHTO  H179 8123   6.244   3.375   5.481
   20CHTO   O66 8124   6.327   3.190   5.504
   20CHTO  H166 8125   6.413   3.222   5.483
   20CHTO   C93 8126   6.239   3.269   5.285
   20CHTO  H180 8127   6.238   3.163   5.255
   20CHTO   N16 8128   6.365   3.327   5.232
   20CHTO  H172 8129   6.428   3.361   5.312
   20CHTO  H173 8130   6.418   3.254   5.172
   20CHTO   C94 8131   6.115   3.340   5.219
   20CHTO  H181 8132   6.112   3.447   5.242
   20CHTO   O61 8133   5.992   3.286   5.271
   20CHTO   C95 8134   5.975   3.301   5.413
   20CHTO  H182 8135   5.981   3.407   5.438
   20CHTO  C106 8136   5.830   3.254   5.449
   20CHTO   O69 8137   5.806   3.119   5.408
   20CHTO  H169 8138   5.805   3.115   5.314
   20CHTO   O63 8139   6.111   3.321   5.056
   20CHTO   C96 8140   6.082   3.173   5.005
   20CHTO  H183 8141   6.095   3.104   5.089
   20CHTO   C98 8142   6.177   3.127   4.890
   20CHTO  H185 8143   6.282   3.139   4.922
   20CHTO   O67 8144   6.160   2.986   4.868
   20CHTO  H167 8145   6.072   2.968   4.841
   20CHTO  C102 8146   6.148   3.205   4.753
   20CHTO  H189 8147   6.193   3.143   4.674
   20CHTO   N18 8148   6.215   3.337   4.741
   20CHTO  H176 8149   6.182   3.402   4.821
   20CHTO  H177 8150   6.322   3.325   4.745
   20CHTO  C105 8151   5.994   3.213   4.727
   20CHTO  H192 8152   5.960   3.317   4.735
   20CHTO   O65 8153   5.914   3.135   4.817
   20CHTO  C100 8154   5.930   3.167   4.956
   20CHTO  H187 8155   5.886   3.266   4.973
   20CHTO  C107 8156   5.845   3.067   5.039
   20CHTO   O70 8157   5.878   2.931   5.010
   20CHTO  H170 8158   5.851   2.909   4.923
   20CHTO   O57 8159   5.978   3.162   4.575
   20CHTO   C85 8160   5.857   3.190   4.503
   20CHTO  H157 8161   5.808   3.274   4.556
   20CHTO   C83 8162   5.758   3.069   4.516
   20CHTO  H155 8163   5.734   3.056   4.622
   20CHTO   O56 8164   5.825   2.948   4.475
   20CHTO  H135 8165   5.845   2.951   4.384
   20CHTO   C81 8166   5.627   3.100   4.438
   20CHTO  H153 8167   5.585   3.192   4.478
   20CHTO   N14 8168   5.521   2.998   4.462
   20CHTO  H141 8169   5.439   3.042   4.515
   20CHTO  H142 8170   5.485   2.957   4.370
   20CHTO   C79 8171   5.659   3.124   4.285
   20CHTO  H151 8172   5.566   3.157   4.238
   20CHTO   O52 8173   5.755   3.234   4.271
   20CHTO   C86 8174   5.878   3.222   4.349
   20CHTO  H158 8175   5.936   3.142   4.298
   20CHTO   C90 8176   5.959   3.353   4.329
   20CHTO   O60 8177   6.092   3.345   4.383
   20CHTO  H138 8178   6.143   3.285   4.333
   20CHTO   O50 8179   5.703   3.007   4.214
   20CHTO   C73 8180   5.745   2.986   4.078
   20CHTO  H145 8181   5.842   3.035   4.061
   20CHTO   C74 8182   5.642   3.043   3.975
   20CHTO  H146 8183   5.629   3.150   3.998
   20CHTO   O54 8184   5.702   3.035   3.844
   20CHTO  H133 8185   5.774   3.095   3.838
   20CHTO   C75 8186   5.506   2.964   3.986
   20CHTO  H147 8187   5.465   2.978   4.087
   20CHTO   N13 8188   5.400   3.011   3.892
   20CHTO  H139 8189   5.313   3.044   3.948
   20CHTO  H140 8190   5.436   3.094   3.833
   20CHTO   C76 8191   5.534   2.807   3.969
   20CHTO  H148 8192   5.570   2.790   3.867
   20CHTO   O49 8193   5.637   2.764   4.065
   20CHTO   C77 8194   5.762   2.833   4.051
   20CHTO  H149 8195   5.800   2.819   3.949
   20CHTO   C88 8196   5.867   2.772   4.143
   20CHTO   O58 8197   5.897   2.635   4.107
   20CHTO  H136 8198   5.961   2.600   4.166
   20CHTO   O51 8199   5.396   2.723   4.000
   20CHTO   C78 8200   5.411   2.581   4.065
   20CHTO  H150 8201   5.510   2.567   4.113
   20CHTO   C80 8202   5.393   2.471   3.959
   20CHTO  H152 8203   5.297   2.489   3.905
   20CHTO   O55 8204   5.501   2.485   3.865
   20CHTO  H134 8205   5.489   2.426   3.793
   20CHTO   C84 8206   5.390   2.327   4.024
   20CHTO  H156 8207   5.489   2.308   4.066
   20CHTO   N15 8208   5.364   2.219   3.922
   20CHTO  H143 8209   5.444   2.149   3.921
   20CHTO  H144 8210   5.272   2.167   3.943
   20CHTO   C87 8211   5.288   2.324   4.141
   20CHTO  H159 8212   5.186   2.333   4.103
   20CHTO   O53 8213   5.320   2.440   4.238
   20CHTO   C82 8214   5.305   2.568   4.174
   20CHTO  H154 8215   5.204   2.578   4.133
   20CHTO   C89 8216   5.321   2.679   4.280
   20CHTO   O59 8217   5.220   2.669   4.381
   20CHTO  H137 8218   5.235   2.593   4.434
   20CHTO   O45 8219   5.299   2.190   4.226
   20CHTO   C67 8220   5.205   2.183   4.335
   20CHTO  H124 8221   5.184   2.284   4.371
   20CHTO   C65 8222   5.071   2.116   4.292
   20CHTO  H122 8223   5.088   2.073   4.193
   20CHTO   O44 8224   4.973   2.221   4.279
   20CHTO  H102 8225   4.895   2.187   4.239
   20CHTO   C63 8226   5.033   1.992   4.382
   20CHTO  H120 8227   5.105   1.913   4.364
   20CHTO   N11 8228   4.904   1.923   4.347
   20CHTO  H108 8229   4.895   1.833   4.404
   20CHTO  H109 8230   4.902   1.901   4.243
   20CHTO   C61 8231   5.047   2.033   4.534
   20CHTO  H118 8232   5.036   1.939   4.591
   20CHTO   O40 8233   5.178   2.087   4.567
   20CHTO   C68 8234   5.273   2.110   4.458
   20CHTO  H125 8235   5.313   2.012   4.425
   20CHTO   C72 8236   5.392   2.191   4.515
   20CHTO   O48 8237   5.353   2.318   4.569
   20CHTO  H105 8238   5.323   2.374   4.500
   20CHTO   O38 8239   4.947   2.129   4.575
   20CHTO   C55 8240   4.940   2.168   4.713
   20CHTO  H112 8241   5.042   2.182   4.753
   20CHTO   C56 8242   4.858   2.061   4.799
   20CHTO  H113 8243   4.768   2.037   4.740
   20CHTO   O42 8244   4.932   1.938   4.809
   20CHTO  H100 8245   5.014   1.953   4.852
   20CHTO   C57 8246   4.819   2.114   4.942
   20CHTO  H114 8247   4.910   2.118   5.002
   20CHTO   N10 8248   4.722   2.026   5.013
   20CHTO  H106 8249   4.775   1.952   5.071
   20CHTO  H107 8250   4.657   1.977   4.943
   20CHTO   C58 8251   4.761   2.257   4.931
   20CHTO  H115 8252   4.666   2.254   4.873
   20CHTO   O37 8253   4.854   2.343   4.861
   20CHTO   C59 8254   4.873   2.308   4.723
   20CHTO  H116 8255   4.777   2.309   4.671
   20CHTO   C70 8256   4.962   2.418   4.663
   20CHTO   O46 8257   4.975   2.411   4.521
   20CHTO  H103 8258   5.024   2.484   4.490
   20CHTO   O39 8259   4.730   2.323   5.085
   20CHTO   C60 8260   4.835   2.403   5.142
   20CHTO  H117 8261   4.931   2.371   5.100
   20CHTO   C62 8262   4.813   2.553   5.109
   20CHTO  H119 8263   4.813   2.561   4.998
   20CHTO   O43 8264   4.684   2.595   5.158
   20CHTO  H101 8265   4.668   2.684   5.134
   20CHTO   C66 8266   4.936   2.639   5.168
   20CHTO  H123 8267   5.028   2.601   5.124
   20CHTO   N12 8268   4.927   2.782   5.128
   20CHTO  H110 8269   4.837   2.826   5.167
   20CHTO  H111 8270   5.015   2.835   5.163
   20CHTO   C69 8271   4.946   2.619   5.322
   20CHTO  H126 8272   4.855   2.660   5.372
   20CHTO   O41 8273   4.959   2.465   5.353
   20CHTO   C64 8274   4.844   2.381   5.295
   20CHTO  H121 8275   4.748   2.412   5.342
   20CHTO   C71 8276   4.868   2.232   5.330
   20CHTO   O47 8277   4.868   2.211   5.471
   20CHTO  H104 8278   4.943   2.252   5.510
   20CHTO   O34 8279   5.070   2.692   5.379
   20CHTO   C49 8280   5.170   2.709   5.489
   20CHTO   H91 8281   5.115   2.732   5.580
   20CHTO   C47 8282   5.263   2.826   5.450
   20CHTO   H89 8283   5.329   2.840   5.539
   20CHTO   O33 8284   5.187   2.948   5.432
   20CHTO   H70 8285   5.128   2.939   5.359
   20CHTO   C45 8286   5.349   2.792   5.317
   20CHTO   H87 8287   5.293   2.827   5.229
   20CHTO    N8 8288   5.479   2.866   5.322
   20CHTO   H75 8289   5.562   2.798   5.309
   20CHTO   H76 8290   5.491   2.919   5.415
   20CHTO   C43 8291   5.359   2.631   5.297
   20CHTO   H85 8292   5.266   2.603   5.247
   20CHTO   O29 8293   5.373   2.566   5.424
   20CHTO   C50 8294   5.259   2.582   5.511
   20CHTO   H92 8295   5.194   2.494   5.499
   20CHTO   C54 8296   5.306   2.573   0.024
   20CHTO   O36 8297   5.365   2.445   0.053
   20CHTO   H72 8298   5.299   2.378   0.048
   20CHTO   O27 8299   5.462   2.590   5.205
   20CHTO   C37 8300   5.475   2.522   5.080
   20CHTO   H79 8301   5.429   2.422   5.086
   20CHTO   C38 8302   5.400   2.599   4.966
   20CHTO   H80 8303   5.430   2.705   4.971
   20CHTO   O31 8304   5.259   2.589   4.991
   20CHTO   H68 8305   5.236   2.638   5.067
   20CHTO   C39 8306   5.435   2.543   4.822
   20CHTO   H81 8307   5.389   2.444   4.815
   20CHTO    N7 8308   5.380   2.627   4.710
   20CHTO   H73 8309   5.324   2.711   4.749
   20CHTO   H74 8310   5.317   2.567   4.646
   20CHTO   C40 8311   5.591   2.522   4.806
   20CHTO   H82 8312   5.641   2.618   4.800
   20CHTO   O26 8313   5.640   2.442   4.915
   20CHTO   C41 8314   5.625   2.506   5.045
   20CHTO   H83 8315   5.673   2.606   5.044
   20CHTO   C52 8316   5.699   2.420   5.151
   20CHTO   O35 8317   5.845   2.411   5.125
   20CHTO   H71 8318   5.884   2.496   5.135
   20CHTO   O28 8319   5.623   2.444   4.689
   20CHTO   C42 8320   5.756   2.447   4.627
   20CHTO   H84 8321   5.752   2.365   4.555
   20CHTO   C44 8322   5.878   2.416   4.720
   20CHTO   H86 8323   5.883   2.493   4.798
   20CHTO   O32 8324   5.852   2.288   4.782
   20CHTO   H69 8325   5.781   2.296   4.844
   20CHTO   C48 8326   6.015   2.415   4.642
   20CHTO   H90 8327   6.013   2.331   4.573
   20CHTO    N9 8328   6.134   2.392   4.732
   20CHTO   H77 8329   6.103   2.380   4.835
   20CHTO   H78 8330   6.190   2.306   4.699
   20CHTO   C51 8331   6.032   2.547   4.556
   20CHTO   H93 8332   6.047   2.631   4.624
   20CHTO   O30 8333   5.918   2.565   4.471
   20CHTO   C46 8334   5.784   2.577   4.546
   20CHTO   H88 8335   5.791   2.662   4.615
   20CHTO   C53 8336   5.674   2.605   4.441
   20CHTO   O72 8337   5.664   2.502   4.342
   20CHTO  H199 8338   5.632   2.423   4.382
   20CHTO   O22 8339   6.141   2.534   4.463
   20CHTO   C31 8340   6.242   2.637   4.428
   20CHTO   H59 8341   6.260   2.625   4.319
   20CHTO   C29 8342   6.202   2.785   4.449
   20CHTO   H57 8343   6.188   2.803   4.557
   20CHTO   O21 8344   6.076   2.809   4.386
   20CHTO   H37 8345   6.008   2.761   4.429
   20CHTO   C27 8346   6.315   2.882   4.395
   20CHTO   H55 8347   6.326   2.866   4.287
   20CHTO    N5 8348   6.286   3.026   4.419
   20CHTO   H43 8349   6.278   3.046   4.525
   20CHTO   H44 8350   6.194   3.054   4.369
   20CHTO   C25 8351   6.452   2.842   4.460
   20CHTO   H53 8352   6.450   2.865   4.568
   20CHTO   O17 8353   6.480   2.700   4.444
   20CHTO   C32 8354   6.380   2.612   4.497
   20CHTO   H60 8355   6.369   2.629   4.604
   20CHTO   C36 8356   6.430   2.466   4.477
   20CHTO   O25 8357   6.455   2.436   4.339
   20CHTO   H40 8358   6.486   2.347   4.332
   20CHTO   O15 8359   6.573   2.922   4.392
   20CHTO   C19 8360   6.710   2.931   4.439
   20CHTO   H47 8361   6.758   2.998   4.365
   20CHTO   C20 8362   6.726   2.996   4.580
   20CHTO   H48 8363   6.672   2.939   4.657
   20CHTO   O19 8364   6.666   3.127   4.572
   20CHTO   H35 8365   6.573   3.120   4.564
   20CHTO   C21 8366   6.878   3.004   4.623
   20CHTO   H49 8367   6.930   3.069   4.553
   20CHTO    N4 8368   6.897   3.062   4.759
   20CHTO   H41 8369   6.848   3.000   4.833
   20CHTO   H42 8370   7.003   3.067   4.782
   20CHTO   C22 8371   6.939   2.862   4.608
   20CHTO   H50 8372   6.886   2.795   4.677
   20CHTO   O14 8373   6.924   2.815   4.473
   20CHTO   C23 8374   6.788   2.796   4.432
   20CHTO   H51 8375   6.743   2.720   4.498
   20CHTO   C34 8376   6.788   2.740   4.289
   20CHTO   O23 8377   6.851   2.612   4.282
   20CHTO   H38 8378   6.943   2.621   4.297
   20CHTO   O16 8379   7.081   2.858   4.631
   20CHTO   C24 8380   7.129   2.723   4.706
   20CHTO   H52 8381   7.047   2.653   4.719
   20CHTO   C26 8382   7.187   2.761   4.844
   20CHTO   H54 8383   7.245   2.856   4.833
   20CHTO   O20 8384   7.078   2.795   4.932
   20CHTO   H36 8385   7.112   2.829   5.013
   20CHTO   C30 8386   7.274   2.649   4.909
   20CHTO   H58 8387   7.237   2.626   5.010
   20CHTO    N6 8388   7.415   2.691   4.929
   20CHTO   H45 8389   7.461   2.714   4.834
   20CHTO   H46 8390   7.472   2.612   4.977
   20CHTO   C33 8391   7.264   2.515   4.830
   20CHTO   H61 8392   7.336   2.441   4.869
   20CHTO   O18 8393   7.290   2.533   4.688
   20CHTO   C28 8394   7.238   2.650   4.622
   20CHTO   H56 8395   7.320   2.720   4.603
   20CHTO   C35 8396   7.180   2.607   4.485
   20CHTO   O24 8397   7.283   2.567   4.394
   20CHTO   H39 8398   7.244   2.542   4.312
   20CHTO    O9 8399   7.134   2.459   4.853
   20CHTO   C13 8400   7.116   2.306   4.804
   20CHTO   H26 8401   7.216   2.266   4.775
   20CHTO   C11 8402   7.014   2.302   4.682
   20CHTO   H24 8403   7.068   2.336   4.592
   20CHTO    O8 8404   6.906   2.395   4.706
   20CHTO    H3 8405   6.851   2.401   4.630
   20CHTO    C9 8406   6.965   2.156   4.662
   20CHTO   H22 8407   7.056   2.096   4.651
   20CHTO    N2 8408   6.892   2.136   4.534
   20CHTO   H10 8409   6.872   2.031   4.520
   20CHTO   H11 8410   6.800   2.192   4.535
   20CHTO    C7 8411   6.888   2.108   4.794
   20CHTO   H20 8412   6.922   2.003   4.806
   20CHTO    O4 8413   6.925   2.184   4.911
   20CHTO   C14 8414   7.065   2.212   4.923
   20CHTO   H27 8415   7.120   2.116   4.919
   20CHTO   C18 8416   7.088   2.271   5.064
   20CHTO   O13 8417   7.228   2.288   5.091
   20CHTO    H7 8418   7.269   2.204   5.100
   20CHTO    O2 8419   6.723   2.108   4.780
   20CHTO    C1 8420   6.649   2.074   4.898
   20CHTO   H14 8421   6.704   2.111   4.988
   20CHTO    C2 8422   6.622   1.919   4.917
   20CHTO   H15 8423   6.582   1.882   4.822
   20CHTO    O6 8424   6.747   1.853   4.943
   20CHTO    H1 8425   6.785   1.884   5.023
   20CHTO    C3 8426   6.516   1.891   5.034
   20CHTO   H16 8427   6.563   1.915   5.130
   20CHTO    N1 8428   6.474   1.747   5.040
   20CHTO    H8 8429   6.560   1.685   5.057
   20CHTO    H9 8430   6.403   1.733   5.120
   20CHTO    C4 8431   6.392   1.989   5.021
   20CHTO   H17 8432   6.332   1.959   4.935
   20CHTO    O1 8433   6.435   2.125   5.009
   20CHTO    C5 8434   6.516   2.154   4.894
   20CHTO   H18 8435   6.462   2.127   4.803
   20CHTO   C16 8436   6.545   2.306   4.892
   20CHTO   O11 8437   6.426   2.385   4.889
   20CHTO    H5 8438   6.380   2.377   4.970
   20CHTO    O3 8439   6.314   1.988   5.142
   20CHTO    C6 8440   6.171   2.020   5.131
   20CHTO   H19 8441   6.143   2.055   5.031
   20CHTO    C8 8442   6.088   1.892   5.164
   20CHTO   H21 8443   6.129   1.847   5.255
   20CHTO    O7 8444   6.104   1.801   5.054
   20CHTO    H2 8445   6.191   1.767   5.051
   20CHTO   C12 8446   5.936   1.925   5.193
   20CHTO   H25 8447   5.891   1.956   5.095
   20CHTO    N3 8448   5.860   1.803   5.238
   20CHTO   H12 8449   5.924   1.716   5.242
   20CHTO   H13 8450   5.813   1.819   5.333
   20CHTO   C15 8451   5.926   2.045   5.293
   20CHTO   H28 8452   5.965   2.019   5.392
   20CHTO   O10 8453   5.786   2.102   5.308
   20CHTO    H4 8454   5.729   2.037   5.346
   20CHTO    O5 8455   5.997   2.158   5.240
   20CHTO   C10 8456   6.139   2.136   5.230
   20CHTO   H23 8457   6.178   2.112   5.329
   20CHTO   C17 8458   6.203   2.268   5.185
   20CHTO   O12 8459   6.189   2.368   5.286
   20CHTO    H6 8460   6.229   2.448   5.257
   21GLOH   H03 8461   8.654   4.199   2.505
   21GLOH    O1 8462   8.726   4.142   2.542
   21GLOH    C1 8463   8.837   4.151   2.450
   21GLOH   H02 8464   8.924   4.102   2.492
   21GLOH   H08 8465   8.864   4.255   2.433
   21GLOH    C2 8466   8.809   4.086   2.312
   21GLOH   H04 8467   8.778   3.982   2.330
   21GLOH    O2 8468   8.703   4.153   2.239
   21GLOH   H05 8469   8.707   4.122   2.144
   21GLOH    C3 8470   8.939   4.083   2.231
   21GLOH   H06 8471   8.921   4.029   2.138
   21GLOH   H07 8472   9.011   4.023   2.287
   21GLOH    O3 8473   8.995   4.213   2.203
   21GLOH   H01 8474   9.082   4.193   2.159
   22GLOH   H03 8475   3.889   5.900   3.089
   22GLOH    O1 8476   3.922   5.872   3.001
   22GLOH    C1 8477   3.812   5.807   2.935
   22GLOH   H02 8478   3.796   5.707   2.976
   22GLOH   H08 8479   3.833   5.794   2.829
   22GLOH    C2 8480   3.682   5.888   2.951
   22GLOH   H04 8481   3.702   5.992   2.923
   22GLOH    O2 8482   3.578   5.835   2.865
   22GLOH   H05 8483   3.493   5.887   2.877
   22GLOH    C3 8484   3.642   5.884   3.099
   22GLOH   H06 8485   3.619   5.782   3.127
   22GLOH   H07 8486   3.551   5.942   3.113
   22GLOH    O3 8487   3.748   5.934   3.183
   22GLOH   H01 8488   3.706   5.973   3.264
   23GLOH   H03 8489   8.070   8.319   3.759
   23GLOH    O1 8490   8.131   8.281   3.690
   23GLOH    C1 8491   8.120   8.137   3.690
   23GLOH   H02 8492   8.014   8.108   3.693
   23GLOH   H08 8493   8.166   8.096   3.780
   23GLOH    C2 8494   8.185   8.072   3.567
   23GLOH   H04 8495   8.141   8.117   3.477
   23GLOH    O2 8496   8.328   8.095   3.565
   23GLOH   H05 8497   8.371   8.031   3.502
   23GLOH    C3 8498   8.157   7.921   3.564
   23GLOH   H06 8499   8.209   7.874   3.648
   23GLOH   H07 8500   8.201   7.880   3.473
   23GLOH    O3 8501   8.017   7.887   3.569
   23GLOH   H01 8502   7.996   7.868   3.665
   24GLOH   H03 8503   8.102   3.911   2.516
   24GLOH    O1 8504   8.159   3.862   2.581
   24GLOH    C1 8505   8.262   3.949   2.632
   24GLOH   H02 8506   8.346   3.890   2.668
   24GLOH   H08 8507   8.225   4.005   2.717
   24GLOH    C2 8508   8.318   4.051   2.530
   24GLOH   H04 8509   8.234   4.116   2.501
   24GLOH    O2 8510   8.420   4.135   2.588
   24GLOH   H05 8511   8.458   4.191   2.514
   24GLOH    C3 8512   8.371   3.981   2.404
   24GLOH   H06 8513   8.420   3.888   2.434
   24GLOH   H07 8514   8.448   4.042   2.356
   24GLOH    O3 8515   8.266   3.953   2.310
   24GLOH   H01 8516   8.219   4.039   2.291
   25GLOH   H03 8517   4.924   8.615   2.247
   25GLOH    O1 8518   4.938   8.672   2.167
   25GLOH    C1 8519   4.816   8.673   2.090
   25GLOH   H02 8520   4.765   8.769   2.104
   25GLOH   H08 8521   4.746   8.596   2.125
   25GLOH    C2 8522   4.839   8.652   1.939
   25GLOH   H04 8523   4.909   8.729   1.903
   25GLOH    O2 8524   4.893   8.520   1.912
   25GLOH   H05 8525   4.989   8.516   1.942
   25GLOH    C3 8526   4.706   8.667   1.861
   25GLOH   H06 8527   4.644   8.580   1.882
   25GLOH   H07 8528   4.729   8.663   1.755
   25GLOH    O3 8529   4.633   8.788   1.891
   25GLOH   H01 8530   4.538   8.762   1.901
   26GLOH   H03 8531   6.074   9.095   4.658
   26GLOH    O1 8532   6.077   8.998   4.639
   26GLOH    C1 8533   5.955   8.965   4.570
   26GLOH   H02 8534   5.874   8.955   4.642
   26GLOH   H08 8535   5.964   8.869   4.520
   26GLOH    C2 8536   5.917   9.072   4.467
   26GLOH   H04 8537   6.002   9.087   4.399
   26GLOH    O2 8538   5.803   9.031   4.389
   26GLOH   H05 8539   5.834   8.958   4.327
   26GLOH    C3 8540   5.889   9.204   4.539
   26GLOH   H06 8541   5.811   9.188   4.614
   26GLOH   H07 8542   5.849   9.276   4.467
   26GLOH    O3 8543   6.008   9.256   4.602
   26GLOH   H01 8544   6.032   9.339   4.557
   27GLOH   H03 8545   1.637   6.946   4.109
   27GLOH    O1 8546   1.543   6.964   4.139
   27GLOH    C1 8547   1.548   7.024   4.269
   27GLOH   H02 8548   1.477   7.107   4.275
   27GLOH   H08 8549   1.647   7.066   4.289
   27GLOH    C2 8550   1.514   6.922   4.380
   27GLOH   H04 8551   1.594   6.847   4.383
   27GLOH    O2 8552   1.504   6.985   4.509
   27GLOH   H05 8553   1.590   7.025   4.534
   27GLOH    C3 8554   1.383   6.851   4.343
   27GLOH   H06 8555   1.399   6.798   4.249
   27GLOH   H07 8556   1.307   6.926   4.324
   27GLOH    O3 8557   1.338   6.759   4.444
   27GLOH   H01 8558   1.360   6.802   4.530
   28GLOH   H03 8559   4.410   3.475   1.103
   28GLOH    O1 8560   4.329   3.516   1.140
   28GLOH    C1 8561   4.353   3.658   1.150
   28GLOH   H02 8562   4.446   3.677   1.203
   28GLOH   H08 8563   4.274   3.706   1.209
   28GLOH    C2 8564   4.360   3.728   1.013
   28GLOH   H04 8565   4.381   3.834   1.031
   28GLOH    O2 8566   4.466   3.673   0.932
   28GLOH   H05 8567   4.505   3.592   0.977
   28GLOH    C3 8568   4.224   3.719   0.941
   28GLOH   H06 8569   4.144   3.736   1.013
   28GLOH   H07 8570   4.211   3.618   0.903
   28GLOH    O3 8571   4.216   3.815   0.834
   28GLOH   H01 8572   4.188   3.767   0.751
   29GLOH   H03 8573   3.775   3.721   3.869
   29GLOH    O1 8574   3.691   3.770   3.844
   29GLOH    C1 8575   3.701   3.908   3.886
   29GLOH   H02 8576   3.797   3.950   3.856
   29GLOH   H08 8577   3.698   3.914   3.995
   29GLOH    C2 8578   3.589   3.997   3.830
   29GLOH   H04 8579   3.594   4.094   3.881
   29GLOH    O2 8580   3.603   4.018   3.687
   29GLOH   H05 8581   3.619   3.930   3.643
   29GLOH    C3 8582   3.450   3.936   3.858
   29GLOH   H06 8583   3.440   3.844   3.799
   29GLOH   H07 8584   3.374   4.005   3.822
   29GLOH    O3 8585   3.427   3.905   3.995
   29GLOH   H01 8586   3.434   3.988   4.050
   30GLOH   H03 8587   8.696   6.911   0.177
   30GLOH    O1 8588   8.759   6.927   0.252
   30GLOH    C1 8589   8.753   7.067   0.287
   30GLOH   H02 8590   8.679   7.118   0.226
   30GLOH   H08 8591   8.849   7.114   0.266
   30GLOH    C2 8592   8.717   7.091   0.434
   30GLOH   H04 8593   8.793   7.042   0.497
   30GLOH    O2 8594   8.718   7.232   0.462
   30GLOH   H05 8595   8.813   7.265   0.456
   30GLOH    C3 8596   8.579   7.030   0.468
   30GLOH   H06 8597   8.512   7.048   0.384
   30GLOH   H07 8598   8.538   7.085   0.553
   30GLOH    O3 8599   8.583   6.889   0.499
   30GLOH   H01 8600   8.579   6.835   0.415
   31GLOH   H03 8601   1.350   5.159   0.137
   31GLOH    O1 8602   1.411   5.229   0.172
   31GLOH    C1 8603   1.506   5.158   0.256
   31GLOH   H02 8604   1.568   5.093   0.194
   31GLOH   H08 8605   1.454   5.094   0.327
   31GLOH    C2 8606   1.599   5.252   0.335
   31GLOH   H04 8607   1.537   5.319   0.396
   31GLOH    O2 8608   1.685   5.175   0.422
   31GLOH   H05 8609   1.636   5.153   0.506
   31GLOH    C3 8610   1.682   5.337   0.238
   31GLOH   H06 8611   1.738   5.270   0.173
   31GLOH   H07 8612   1.755   5.393   0.296
   31GLOH    O3 8613   1.599   5.424   0.159
   31GLOH   H01 8614   1.523   5.368   0.131
   32GLOH   H03 8615   0.544   0.443   4.377
   32GLOH    O1 8616   0.609   0.378   4.415
   32GLOH    C1 8617   0.720   0.453   4.469
   32GLOH   H02 8618   0.686   0.522   4.546
   32GLOH   H08 8619   0.767   0.513   4.390
   32GLOH    C2 8620   0.828   0.362   4.531
   32GLOH   H04 8621   0.869   0.297   4.452
   32GLOH    O2 8622   0.935   0.444   4.584
   32GLOH   H05 8623   1.019   0.394   4.584
   32GLOH    C3 8624   0.767   0.275   4.641
   32GLOH   H06 8625   0.733   0.339   4.723
   32GLOH   H07 8626   0.844   0.209   4.682
   32GLOH    O3 8627   0.657   0.198   4.589
   32GLOH   H01 8628   0.617   0.253   4.519
   33GLOH   H03 8629   1.646   0.096   4.308
   33GLOH    O1 8630   1.552   0.070   4.325
   33GLOH    C1 8631   1.547   9.969   4.428
   33GLOH   H02 8632   1.452   9.973   4.480
   33GLOH   H08 8633   1.625   9.987   4.503
   33GLOH    C2 8634   1.565   9.825   4.373
   33GLOH   H04 8635   1.656   9.823   4.311
   33GLOH    O2 8636   1.581   9.732   4.482
   33GLOH   H05 8637   1.665   9.749   4.529
   33GLOH    C3 8638   1.445   9.784   4.287
   33GLOH   H06 8639   1.354   9.807   4.341
   33GLOH   H07 8640   1.447   9.675   4.274
   33GLOH    O3 8641   1.444   9.847   4.157
   33GLOH   H01 8642   1.349   9.859   4.130
   34GLOH   H03 8643   7.928   8.683   0.206
   34GLOH    O1 8644   7.983   8.659   0.126
   34GLOH    C1 8645   7.910   8.695   0.007
   34GLOH   H02 8646   7.926   8.801   5.617
   34GLOH   H08 8647   7.802   8.683   0.023
   34GLOH    C2 8648   7.950   8.611   5.519
   34GLOH   H04 8649   7.928   8.505   5.541
   34GLOH    O2 8650   7.873   8.652   5.404
   34GLOH   H05 8651   7.876   8.583   5.334
   34GLOH    C3 8652   8.101   8.626   5.491
   34GLOH   H06 8653   8.122   8.729   5.463
   34GLOH   H07 8654   8.127   8.563   5.405
   34GLOH    O3 8655   8.178   8.588   5.606
   34GLOH   H01 8656   8.117   8.599   0.049
   35GLOH   H03 8657   3.930   1.995   0.132
   35GLOH    O1 8658   4.018   1.949   0.124
   35GLOH    C1 8659   4.098   2.016   0.026
   35GLOH   H02 8660   4.039   2.088   5.603
   35GLOH   H08 8661   4.137   1.944   5.588
   35GLOH    C2 8662   4.217   2.089   0.091
   35GLOH   H04 8663   4.269   2.019   0.158
   35GLOH    O2 8664   4.309   2.136   5.624
   35GLOH   H05 8665   4.273   2.220   5.588
   35GLOH    C3 8666   4.167   2.207   0.177
   35GLOH   H06 8667   4.251   2.245   0.235
   35GLOH   H07 8668   4.094   2.169   0.248
   35GLOH    O3 8669   4.108   2.313   0.099
   35GLOH   H01 8670   4.147   2.398   0.128
   36GLOH   H03 8671   4.801   8.499   0.147
   36GLOH    O1 8672   4.836   8.430   0.209
   36GLOH    C1 8673   4.770   8.304   0.182
   36GLOH   H02 8674   4.756   8.290   0.075
   36GLOH   H08 8675   4.671   8.303   0.227
   36GLOH    C2 8676   4.848   8.183   0.237
   36GLOH   H04 8677   4.847   8.187   0.347
   36GLOH    O2 8678   4.786   8.059   0.195
   36GLOH   H05 8679   4.698   8.047   0.238
   36GLOH    C3 8680   4.995   8.187   0.190
   36GLOH   H06 8681   4.997   8.178   0.082
   36GLOH   H07 8682   5.047   8.100   0.230
   36GLOH    O3 8683   5.059   8.308   0.233
   36GLOH   H01 8684   4.990   8.378   0.228
   37GLOH   H03 8685   4.417   4.007   4.218
   37GLOH    O1 8686   4.388   3.922   4.177
   37GLOH    C1 8687   4.447   3.910   4.046
   37GLOH   H02 8688   4.553   3.938   4.049
   37GLOH   H08 8689   4.398   3.978   3.976
   37GLOH    C2 8690   4.436   3.766   3.992
   37GLOH   H04 8691   4.329   3.740   3.986
   37GLOH    O2 8692   4.495   3.755   3.860
   37GLOH   H05 8693   4.422   3.735   3.795
   37GLOH    C3 8694   4.504   3.668   4.089
   37GLOH   H06 8695   4.609   3.694   4.097
   37GLOH   H07 8696   4.498   3.568   4.047
   37GLOH    O3 8697   4.441   3.672   4.219
   37GLOH   H01 8698   4.416   3.767   4.232
   38GLOH   H03 8699   7.155   4.064   0.069
   38GLOH    O1 8700   7.247   4.069   0.104
   38GLOH    C1 8701   7.243   4.054   0.247
   38GLOH   H02 8702   7.191   4.139   0.292
   38GLOH   H08 8703   7.344   4.055   0.289
   38GLOH    C2 8704   7.173   3.924   0.293
   38GLOH   H04 8705   7.070   3.926   0.256
   38GLOH    O2 8706   7.240   3.808   0.241
   38GLOH   H05 8707   7.291   3.834   0.161
   38GLOH    C3 8708   7.167   3.922   0.447
   38GLOH   H06 8709   7.268   3.935   0.486
   38GLOH   H07 8710   7.133   3.823   0.479
   38GLOH    O3 8711   7.079   4.024   0.497
   38GLOH   H01 8712   7.094   4.031   0.596
   39GLOH   H03 8713   7.205   3.526   0.604
   39GLOH    O1 8714   7.139   3.497   0.673
   39GLOH    C1 8715   7.089   3.616   0.738
   39GLOH   H02 8716   7.016   3.590   0.814
   39GLOH   H08 8717   7.037   3.679   0.666
   39GLOH    C2 8718   7.200   3.699   0.805
   39GLOH   H04 8719   7.265   3.738   0.726
   39GLOH    O2 8720   7.142   3.811   0.875
   39GLOH   H05 8721   7.099   3.779   0.958
   39GLOH    C3 8722   7.287   3.611   0.897
   39GLOH   H06 8723   7.367   3.673   0.937
   39GLOH   H07 8724   7.334   3.535   0.835
   39GLOH    O3 8725   7.214   3.548   1.004
   39GLOH   H01 8726   7.262   3.464   1.027
   40GLOH   H03 8727   5.827   0.135   2.784
   40GLOH    O1 8728   5.845   0.210   2.847
   40GLOH    C1 8729   5.969   0.274   2.809
   40GLOH   H02 8730   5.988   0.265   2.702
   40GLOH   H08 8731   6.053   0.224   2.859
   40GLOH    C2 8732   5.971   0.423   2.848
   40GLOH   H04 8733   5.959   0.430   2.957
   40GLOH    O2 8734   6.099   0.480   2.812
   40GLOH   H05 8735   6.101   0.578   2.833
   40GLOH    C3 8736   5.854   0.499   2.783
   40GLOH   H06 8737   5.853   0.600   2.823
   40GLOH   H07 8738   5.761   0.452   2.815
   40GLOH    O3 8739   5.860   0.502   2.639
   40GLOH   H01 8740   5.938   0.559   2.614
   41GLOH   H03 8741   7.037   3.520   0.034
   41GLOH    O1 8742   7.057   3.429   5.633
   41GLOH    C1 8743   7.200   3.422   5.617
   41GLOH   H02 8744   7.236   3.321   0.003
   41GLOH   H08 8745   7.249   3.487   0.056
   41GLOH    C2 8746   7.246   3.462   5.476
   41GLOH   H04 8747   7.202   3.560   5.450
   41GLOH    O2 8748   7.390   3.472   5.471
   41GLOH   H05 8749   7.422   3.534   5.543
   41GLOH    C3 8750   7.196   3.357   5.375
   41GLOH   H06 8751   7.247   3.263   5.395
   41GLOH   H07 8752   7.224   3.388   5.275
   41GLOH    O3 8753   7.054   3.340   5.385
   41GLOH   H01 8754   7.029   3.368   5.476
   42GLOH   H03 8755   4.469   4.530   4.883
   42GLOH    O1 8756   4.519   4.551   4.964
   42GLOH    C1 8757   4.569   4.686   4.958
   42GLOH   H02 8758   4.486   4.757   4.951
   42GLOH   H08 8759   4.630   4.700   4.869
   42GLOH    C2 8760   4.654   4.720   5.082
   42GLOH   H04 8761   4.743   4.656   5.081
   42GLOH    O2 8762   4.696   4.858   5.077
   42GLOH   H05 8763   4.722   4.882   5.168
   42GLOH    C3 8764   4.575   4.691   5.211
   42GLOH   H06 8765   4.556   4.584   5.216
   42GLOH   H07 8766   4.478   4.740   5.204
   42GLOH    O3 8767   4.644   4.734   5.330
   42GLOH   H01 8768   4.605   4.687   5.407
   43GLOH   H03 8769   7.007   4.135   0.423
   43GLOH    O1 8770   6.962   4.205   0.368
   43GLOH    C1 8771   6.846   4.255   0.438
   43GLOH   H02 8772   6.856   4.363   0.454
   43GLOH   H08 8773   6.837   4.210   0.537
   43GLOH    C2 8774   6.717   4.228   0.359
   43GLOH   H04 8775   6.708   4.120   0.344
   43GLOH    O2 8776   6.601   4.277   0.430
   43GLOH   H05 8777   6.520   4.254   0.378
   43GLOH    C3 8778   6.728   4.295   0.220
   43GLOH   H06 8779   6.730   4.403   0.233
   43GLOH   H07 8780   6.639   4.271   0.162
   43GLOH    O3 8781   6.847   4.250   0.152
   43GLOH   H01 8782   6.910   4.233   0.227
   44GLOH   H03 8783   1.095   1.391   1.800
   44GLOH    O1 8784   1.070   1.375   1.705
   44GLOH    C1 8785   0.927   1.360   1.696
   44GLOH   H02 8786   0.880   1.457   1.681
   44GLOH   H08 8787   0.886   1.318   1.788
   44GLOH    C2 8788   0.887   1.268   1.579
   44GLOH   H04 8789   0.930   1.169   1.597
   44GLOH    O2 8790   0.743   1.258   1.577
   44GLOH   H05 8791   0.713   1.224   1.487
   44GLOH    C3 8792   0.942   1.323   1.445
   44GLOH   H06 8793   1.036   1.374   1.463
   44GLOH   H07 8794   0.872   1.399   1.408
   44GLOH    O3 8795   0.960   1.220   1.346
   44GLOH   H01 8796   0.913   1.249   1.263
   45GLOH   H03 8797   7.312   1.543   1.320
   45GLOH    O1 8798   7.318   1.567   1.417
   45GLOH    C1 8799   7.375   1.699   1.430
   45GLOH   H02 8800   7.297   1.775   1.421
   45GLOH   H08 8801   7.447   1.717   1.350
   45GLOH    C2 8802   7.447   1.717   1.565
   45GLOH   H04 8803   7.533   1.649   1.568
   45GLOH    O2 8804   7.494   1.853   1.578
   45GLOH   H05 8805   7.538   1.866   1.667
   45GLOH    C3 8806   7.353   1.682   1.682
   45GLOH   H06 8807   7.276   1.760   1.690
   45GLOH   H07 8808   7.411   1.685   1.774
   45GLOH    O3 8809   7.293   1.553   1.664
   45GLOH   H01 8810   7.290   1.543   1.564
   46GLOH   H03 8811   2.738   4.803   2.349
   46GLOH    O1 8812   2.662   4.831   2.407
   46GLOH    C1 8813   2.695   4.806   2.546
   46GLOH   H02 8814   2.664   4.892   2.606
   46GLOH   H08 8815   2.803   4.797   2.558
   46GLOH    C2 8816   2.629   4.680   2.603
   46GLOH   H04 8817   2.669   4.592   2.550
   46GLOH    O2 8818   2.660   4.667   2.744
   46GLOH   H05 8819   2.579   4.638   2.794
   46GLOH    C3 8820   2.476   4.684   2.581
   46GLOH   H06 8821   2.457   4.703   2.475
   46GLOH   H07 8822   2.436   4.769   2.636
   46GLOH    O3 8823   2.409   4.563   2.622
   46GLOH   H01 8824   2.317   4.590   2.647
   47GLOH   H03 8825   3.295   7.371   3.613
   47GLOH    O1 8826   3.323   7.292   3.667
   47GLOH    C1 8827   3.444   7.243   3.608
   47GLOH   H02 8828   3.424   7.210   3.506
   47GLOH   H08 8829   3.481   7.155   3.662
   47GLOH    C2 8830   3.559   7.346   3.606
   47GLOH   H04 8831   3.518   7.441   3.569
   47GLOH    O2 8832   3.611   7.369   3.739
   47GLOH   H05 8833   3.631   7.467   3.746
   47GLOH    C3 8834   3.668   7.300   3.509
   47GLOH   H06 8835   3.709   7.206   3.546
   47GLOH   H07 8836   3.749   7.373   3.511
   47GLOH    O3 8837   3.617   7.283   3.375
   47GLOH   H01 8838   3.687   7.319   3.313
   48GLOH   H03 8839   0.361   3.649   3.710
   48GLOH    O1 8840   0.447   3.679   3.752
   48GLOH    C1 8841   0.417   3.803   3.821
   48GLOH   H02 8842   0.491   3.820   3.899
   48GLOH   H08 8843   0.321   3.796   3.871
   48GLOH    C2 8844   0.414   3.926   3.728
   48GLOH   H04 8845   0.507   3.923   3.670
   48GLOH    O2 8846   0.304   3.923   3.634
   48GLOH   H05 8847   0.217   3.916   3.683
   48GLOH    C3 8848   0.417   4.056   3.809
   48GLOH   H06 8849   0.418   4.140   3.739
   48GLOH   H07 8850   0.511   4.060   3.865
   48GLOH    O3 8851   0.306   4.073   3.900
   48GLOH   H01 8852   0.233   4.118   3.849
   49GLOH   H03 8853   0.049   7.243   2.696
   49GLOH    O1 8854   9.987   7.311   2.662
   49GLOH    C1 8855   9.883   7.243   2.589
   49GLOH   H02 8856   9.837   7.166   2.651
   49GLOH   H08 8857   9.927   7.191   2.503
   49GLOH    C2 8858   9.772   7.336   2.536
   49GLOH   H04 8859   9.818   7.414   2.475
   49GLOH    O2 8860   9.678   7.262   2.454
   49GLOH   H05 8861   9.720   7.179   2.416
   49GLOH    C3 8862   9.694   7.403   2.651
   49GLOH   H06 8863   9.657   7.324   2.717
   49GLOH   H07 8864   9.605   7.451   2.609
   49GLOH    O3 8865   9.770   7.499   2.726
   49GLOH   H01 8866   9.823   7.449   2.794
   50GLOH   H03 8867   9.662   5.509   2.134
   50GLOH    O1 8868   9.578   5.486   2.084
   50GLOH    C1 8869   9.602   5.368   2.005
   50GLOH   H02 8870   9.507   5.323   1.976
   50GLOH   H08 8871   9.655   5.292   2.064
   50GLOH    C2 8872   9.684   5.397   1.877
   50GLOH   H04 8873   9.782   5.436   1.908
   50GLOH    O2 8874   9.704   5.275   1.802
   50GLOH   H05 8875   9.769   5.217   1.853
   50GLOH    C3 8876   9.613   5.504   1.792
   50GLOH   H06 8877   9.518   5.464   1.756
   50GLOH   H07 8878   9.674   5.525   1.704
   50GLOH    O3 8879   9.592   5.624   1.868
   50GLOH   H01 8880   9.565   5.593   1.959
   51GLOH   H03 8881   8.544   7.812   2.609
   51GLOH    O1 8882   8.608   7.790   2.535
   51GLOH    C1 8883   8.533   7.756   2.416
   51GLOH   H02 8884   8.595   7.770   2.327
   51GLOH   H08 8885   8.449   7.824   2.405
   51GLOH    C2 8886   8.480   7.611   2.415
   51GLOH   H04 8887   8.445   7.590   2.313
   51GLOH    O2 8888   8.582   7.515   2.449
   51GLOH   H05 8889   8.644   7.504   2.370
   51GLOH    C3 8890   8.359   7.598   2.509
   51GLOH   H06 8891   8.390   7.624   2.610
   51GLOH   H07 8892   8.328   7.494   2.511
   51GLOH    O3 8893   8.250   7.682   2.467
   51GLOH   H01 8894   8.191   7.695   2.546
   52GLOH   H03 8895   9.655   0.596   0.202
   52GLOH    O1 8896   9.622   0.686   0.182
   52GLOH    C1 8897   9.520   0.684   0.080
   52GLOH   H02 8898   9.565   0.669   5.616
   52GLOH   H08 8899   9.470   0.781   0.076
   52GLOH    C2 8900   9.411   0.576   0.099
   52GLOH   H04 8901   9.456   0.477   0.086
   52GLOH    O2 8902   9.350   0.585   0.230
   52GLOH   H05 8903   9.299   0.503   0.252
   52GLOH    C3 8904   9.301   0.595   5.627
   52GLOH   H06 8905   9.253   0.691   0.009
   52GLOH   H07 8906   9.225   0.518   0.008
   52GLOH    O3 8907   9.353   0.588   5.493
   52GLOH   H01 8908   9.279   0.592   5.429
   53GLOH   H03 8909   8.194   1.739   4.883
   53GLOH    O1 8910   8.133   1.698   4.820
   53GLOH    C1 8911   8.195   1.689   4.690
   53GLOH   H02 8912   8.264   1.604   4.687
   53GLOH   H08 8913   8.254   1.778   4.670
   53GLOH    C2 8914   8.092   1.673   4.577
   53GLOH   H04 8915   8.040   1.769   4.571
   53GLOH    O2 8916   8.158   1.649   4.451
   53GLOH   H05 8917   8.094   1.613   4.383
   53GLOH    C3 8918   7.986   1.566   4.613
   53GLOH   H06 8919   7.935   1.535   4.521
   53GLOH   H07 8920   7.911   1.613   4.676
   53GLOH    O3 8921   8.042   1.452   4.679
   53GLOH   H01 8922   8.077   1.484   4.765
   54GLOH   H03 8923   3.615   6.121   1.210
   54GLOH    O1 8924   3.707   6.124   1.247
   54GLOH    C1 8925   3.763   6.256   1.230
   54GLOH   H02 8926   3.870   6.249   1.212
   54GLOH   H08 8927   3.750   6.314   1.322
   54GLOH    C2 8928   3.700   6.337   1.115
   54GLOH   H04 8929   3.705   6.275   1.024
   54GLOH    O2 8930   3.562   6.366   1.143
   54GLOH   H05 8931   3.511   6.280   1.139
   54GLOH    C3 8932   3.779   6.466   1.088
   54GLOH   H06 8933   3.784   6.524   1.180
   54GLOH   H07 8934   3.724   6.526   1.015
   54GLOH    O3 8935   3.912   6.438   1.039
   54GLOH   H01 8936   3.903   6.393   0.952
   55GLOH   H03 8937   1.145   1.534   1.289
   55GLOH    O1 8938   1.229   1.491   1.323
   55GLOH    C1 8939   1.343   1.560   1.268
   55GLOH   H02 8940   1.428   1.544   1.334
   55GLOH   H08 8941   1.325   1.668   1.267
   55GLOH    C2 8942   1.382   1.515   1.126
   55GLOH   H04 8943   1.387   1.406   1.126
   55GLOH    O2 8944   1.284   1.556   1.027
   55GLOH   H05 8945   1.328   1.568   0.938
   55GLOH    C3 8946   1.522   1.568   1.090
   55GLOH   H06 8947   1.519   1.677   1.088
   55GLOH   H07 8948   1.546   1.536   0.989
   55GLOH    O3 8949   1.622   1.522   1.182
   55GLOH   H01 8950   1.629   1.586   1.257
   56GLOH   H03 8951   9.991   1.023   5.055
   56GLOH    O1 8952   0.051   0.949   5.033
   56GLOH    C1 8953   0.185   0.981   5.073
   56GLOH   H02 8954   0.186   1.028   5.172
   56GLOH   H08 8955   0.228   1.055   5.004
   56GLOH    C2 8956   0.280   0.860   5.075
   56GLOH   H04 8957   0.383   0.896   5.065
   56GLOH    O2 8958   0.269   0.788   5.200
   56GLOH   H05 8959   0.174   0.763   5.219
   56GLOH    C3 8960   0.251   0.765   4.958
   56GLOH   H06 8961   0.162   0.706   4.981
   56GLOH   H07 8962   0.334   0.694   4.949
   56GLOH    O3 8963   0.232   0.836   4.835
   56GLOH   H01 8964   0.149   0.887   4.845
   57GLOH   H03 8965   2.255   8.882   5.064
   57GLOH    O1 8966   2.223   8.842   4.979
   57GLOH    C1 8967   2.082   8.867   4.963
   57GLOH   H02 8968   2.055   8.869   4.857
   57GLOH   H08 8969   2.056   8.966   5.002
   57GLOH    C2 8970   1.993   8.764   5.033
   57GLOH   H04 8971   2.017   8.765   5.141
   57GLOH    O2 8972   1.854   8.799   5.017
   57GLOH   H05 8973   1.832   8.797   4.920
   57GLOH    C3 8974   2.020   8.622   4.980
   57GLOH   H06 8975   1.961   8.552   5.040
   57GLOH   H07 8976   2.124   8.598   4.999
   57GLOH    O3 8977   1.989   8.605   4.840
   57GLOH   H01 8978   2.020   8.516   4.812
   58GLOH   H03 8979   7.239   4.825   4.773
   58GLOH    O1 8980   7.201   4.858   4.689
   58GLOH    C1 8981   7.302   4.856   4.586
   58GLOH   H02 8982   7.336   4.753   4.569
   58GLOH   H08 8983   7.389   4.914   4.616
   58GLOH    C2 8984   7.248   4.912   4.453
   58GLOH   H04 8985   7.167   4.847   4.417
   58GLOH    O2 8986   7.198   5.046   4.473
   58GLOH   H05 8987   7.155   5.045   4.562
   58GLOH    C3 8988   7.360   4.913   4.347
   58GLOH   H06 8989   7.439   4.980   4.381
   58GLOH   H07 8990   7.320   4.954   4.255
   58GLOH    O3 8991   7.414   4.781   4.324
   58GLOH   H01 8992   7.472   4.786   4.244
   59GLOH   H03 8993   3.101   9.752   3.925
   59GLOH    O1 8994   3.007   9.738   3.953
   59GLOH    C1 8995   2.935   9.687   3.839
   59GLOH   H02 8996   2.854   9.622   3.873
   59GLOH   H08 8997   3.000   9.625   3.777
   59GLOH    C2 8998   2.874   9.798   3.751
   59GLOH   H04 8999   2.797   9.849   3.810
   59GLOH    O2 9000   2.972   9.895   3.707
   59GLOH   H05 9001   2.938   9.984   3.738
   59GLOH    C3 9002   2.806   9.735   3.628
   59GLOH   H06 9003   2.880   9.676   3.573
   59GLOH   H07 9004   2.774   9.815   3.561
   59GLOH    O3 9005   2.695   9.653   3.665
   59GLOH   H01 9006   2.688   9.577   3.600
   60GLOH   H03 9007   1.910   4.109   0.759
   60GLOH    O1 9008   1.924   4.014   0.782
   60GLOH    C1 9009   1.803   3.939   0.760
   60GLOH   H02 9010   1.813   3.839   0.804
   60GLOH   H08 9011   1.786   3.925   0.653
   60GLOH    C2 9012   1.678   4.006   0.821
   60GLOH   H04 9013   1.699   4.029   0.926
   60GLOH    O2 9014   1.646   4.129   0.752
   60GLOH   H05 9015   1.729   4.184   0.742
   60GLOH    C3 9016   1.555   3.914   0.814
   60GLOH   H06 9017   1.538   3.888   0.709
   60GLOH   H07 9018   1.470   3.973   0.846
   60GLOH    O3 9019   1.565   3.794   0.893
   60GLOH   H01 9020   1.602   3.722   0.835
   61GLOH   H03 9021   2.759   1.089   3.229
   61GLOH    O1 9022   2.706   1.019   3.182
   61GLOH    C1 9023   2.786   0.966   3.074
   61GLOH   H02 9024   2.745   0.869   3.043
   61GLOH   H08 9025   2.888   0.947   3.108
   61GLOH    C2 9026   2.791   1.059   2.952
   61GLOH   H04 9027   2.819   1.159   2.987
   61GLOH    O2 9028   2.890   1.013   2.857
   61GLOH   H05 9029   2.979   1.012   2.905
   61GLOH    C3 9030   2.654   1.070   2.881
   61GLOH   H06 9031   2.614   0.969   2.869
   61GLOH   H07 9032   2.669   1.110   2.781
   61GLOH    O3 9033   2.560   1.152   2.954
   61GLOH   H01 9034   2.520   1.094   3.024
   62GLOH   H03 9035   5.757   9.754   2.329
   62GLOH    O1 9036   5.693   9.775   2.256
   62GLOH    C1 9037   5.641   9.909   2.275
   62GLOH   H02 9038   5.623   9.956   2.179
   62GLOH   H08 9039   5.714   9.971   2.328
   62GLOH    C2 9040   5.509   9.910   2.356
   62GLOH   H04 9041   5.529   9.868   2.455
   62GLOH    O2 9042   5.458   0.044   2.370
   62GLOH   H05 9043   5.472   0.076   2.465
   62GLOH    C3 9044   5.404   9.821   2.286
   62GLOH   H06 9045   5.375   9.868   2.192
   62GLOH   H07 9046   5.314   9.819   2.348
   62GLOH    O3 9047   5.453   9.688   2.264
   62GLOH   H01 9048   5.551   9.698   2.254
   63GLOH   H03 9049   6.875   7.995   4.050
   63GLOH    O1 9050   6.856   7.945   4.134
   63GLOH    C1 9051   6.979   7.917   4.204
   63GLOH   H02 9052   6.976   7.961   4.304
   63GLOH   H08 9053   7.064   7.961   4.152
   63GLOH    C2 9054   7.004   7.766   4.220
   63GLOH   H04 9055   7.011   7.722   4.119
   63GLOH    O2 9056   7.129   7.746   4.290
   63GLOH   H05 9057   7.145   7.648   4.299
   63GLOH    C3 9058   6.886   7.699   4.293
   63GLOH   H06 9059   6.793   7.727   4.244
   63GLOH   H07 9060   6.881   7.739   4.394
   63GLOH    O3 9061   6.896   7.555   4.297
   63GLOH   H01 9062   6.990   7.531   4.315
   64GLOH   H03 9063   9.607   3.044   4.880
   64GLOH    O1 9064   9.601   3.013   4.788
   64GLOH    C1 9065   9.603   2.869   4.784
   64GLOH   H02 9066   9.516   2.829   4.835
   64GLOH   H08 9067   9.691   2.831   4.836
   64GLOH    C2 9068   9.603   2.815   4.640
   64GLOH   H04 9069   9.694   2.852   4.590
   64GLOH    O2 9070   9.605   2.671   4.643
   64GLOH   H05 9071   9.585   2.636   4.554
   64GLOH    C3 9072   9.480   2.867   4.563
   64GLOH   H06 9073   9.476   2.975   4.574
   64GLOH   H07 9074   9.391   2.827   4.610
   64GLOH    O3 9075   9.483   2.832   4.423
   64GLOH   H01 9076   9.470   2.735   4.412
   65GLOH   H03 9077   3.311   9.971   2.598
   65GLOH    O1 9078   3.274   9.967   2.506
   65GLOH    C1 9079   3.271   9.828   2.466
   65GLOH   H02 9080   3.218   9.818   2.371
   65GLOH   H08 9081   3.217   9.768   2.539
   65GLOH    C2 9082   3.412   9.769   2.447
   65GLOH   H04 9083   3.468   9.837   2.381
   65GLOH    O2 9084   3.481   9.762   2.574
   65GLOH   H05 9085   3.528   9.675   2.582
   65GLOH    C3 9086   3.402   9.633   2.374
   65GLOH   H06 9087   3.504   9.597   2.356
   65GLOH   H07 9088   3.358   9.651   2.276
   65GLOH    O3 9089   3.326   9.534   2.446
   65GLOH   H01 9090   3.232   9.537   2.412
   66GLOH   H03 9091   5.469   1.374   1.419
   66GLOH    O1 9092   5.559   1.377   1.462
   66GLOH    C1 9093   5.629   1.252   1.446
   66GLOH   H02 9094   5.731   1.270   1.412
   66GLOH   H08 9095   5.581   1.190   1.370
   66GLOH    C2 9096   5.635   1.171   1.577
   66GLOH   H04 9097   5.532   1.143   1.604
   66GLOH    O2 9098   5.714   1.050   1.565
   66GLOH   H05 9099   5.790   1.062   1.500
   66GLOH    C3 9100   5.691   1.258   1.692
   66GLOH   H06 9101   5.795   1.280   1.671
   66GLOH   H07 9102   5.688   1.200   1.784
   66GLOH    O3 9103   5.615   1.379   1.707
   66GLOH   H01 9104   5.590   1.404   1.614
   67GLOH   H03 9105   5.860   7.068   3.190
   67GLOH    O1 9106   5.881   7.021   3.105
   67GLOH    C1 9107   5.819   7.094   2.996
   67GLOH   H02 9108   5.720   7.128   3.026
   67GLOH   H08 9109   5.805   7.027   2.911
   67GLOH    C2 9110   5.899   7.216   2.948
   67GLOH   H04 9111   5.835   7.272   2.878
   67GLOH    O2 9112   5.933   7.305   3.057
   67GLOH   H05 9113   6.014   7.268   3.105
   67GLOH    C3 9114   6.025   7.173   2.869
   67GLOH   H06 9115   6.086   7.110   2.934
   67GLOH   H07 9116   6.084   7.261   2.847
   67GLOH    O3 9117   5.994   7.101   2.748
   67GLOH   H01 9118   5.917   7.144   2.703
   68GLOH   H03 9119   0.718   4.906   0.721
   68GLOH    O1 9120   0.812   4.928   0.698
   68GLOH    C1 9121   0.807   5.018   0.585
   68GLOH   H02 9122   0.731   5.095   0.600
   68GLOH   H08 9123   0.779   4.964   0.494
   68GLOH    C2 9124   0.942   5.087   0.560
   68GLOH   H04 9125   1.018   5.010   0.545
   68GLOH    O2 9126   0.938   5.174   0.445
   68GLOH   H05 9127   1.030   5.176   0.408
   68GLOH    C3 9128   0.982   5.170   0.684
   68GLOH   H06 9129   0.913   5.254   0.694
   68GLOH   H07 9130   1.082   5.212   0.667
   68GLOH    O3 9131   0.981   5.089   0.803
   68GLOH   H01 9132   0.919   5.015   0.784
   69GLOH   H03 9133   3.876   3.488   4.411
   69GLOH    O1 9134   3.834   3.576   4.429
   69GLOH    C1 9135   3.718   3.586   4.346
   69GLOH   H02 9136   3.745   3.630   4.249
   69GLOH   H08 9137   3.645   3.652   4.392
   69GLOH    C2 9138   3.650   3.450   4.319
   69GLOH   H04 9139   3.617   3.409   4.416
   69GLOH    O2 9140   3.535   3.467   4.234
   69GLOH   H05 9141   3.555   3.536   4.164
   69GLOH    C3 9142   3.751   3.352   4.258
   69GLOH   H06 9143   3.781   3.389   4.160
   69GLOH   H07 9144   3.701   3.256   4.242
   69GLOH    O3 9145   3.867   3.335   4.342
   69GLOH   H01 9146   3.920   3.257   4.310
   70GLOH   H03 9147   3.365   3.244   0.925
   70GLOH    O1 9148   3.463   3.238   0.928
   70GLOH    C1 9149   3.518   3.296   0.808
   70GLOH   H02 9150   3.506   3.404   0.810
   70GLOH   H08 9151   3.465   3.259   0.720
   70GLOH    C2 9152   3.668   3.263   0.792
   70GLOH   H04 9153   3.720   3.299   0.882
   70GLOH    O2 9154   3.689   3.121   0.780
   70GLOH   H05 9155   3.786   3.102   0.764
   70GLOH    C3 9156   3.725   3.339   0.671
   70GLOH   H06 9157   3.668   3.312   0.582
   70GLOH   H07 9158   3.827   3.306   0.654
   70GLOH    O3 9159   3.722   3.482   0.689
   70GLOH   H01 9160   3.778   3.506   0.767
   71GLOH   H03 9161   4.749   7.278   4.068
   71GLOH    O1 9162   4.672   7.217   4.085
   71GLOH    C1 9163   4.704   7.088   4.030
   71GLOH   H02 9164   4.777   7.037   4.094
   71GLOH   H08 9165   4.750   7.098   3.932
   71GLOH    C2 9166   4.580   6.997   4.016
   71GLOH   H04 9167   4.510   7.045   3.947
   71GLOH    O2 9168   4.621   6.869   3.960
   71GLOH   H05 9169   4.603   6.796   4.026
   71GLOH    C3 9170   4.510   6.983   4.153
   71GLOH   H06 9171   4.479   7.082   4.186
   71GLOH   H07 9172   4.583   6.947   4.225
   71GLOH    O3 9173   4.396   6.894   4.151
   71GLOH   H01 9174   4.323   6.938   4.100
   72GLOH   H03 9175   9.966   1.805   2.037
   72GLOH    O1 9176   9.983   1.708   2.027
   72GLOH    C1 9177   9.882   1.648   1.943
   72GLOH   H02 9178   9.927   1.616   1.849
   72GLOH   H08 9179   9.806   1.721   1.918
   72GLOH    C2 9180   9.812   1.527   2.009
   72GLOH   H04 9181   9.742   1.566   2.084
   72GLOH    O2 9182   9.735   1.454   1.910
   72GLOH   H05 9183   9.796   1.433   1.833
   72GLOH    C3 9184   9.911   1.434   2.081
   72GLOH   H06 9185   9.976   1.387   2.006
   72GLOH   H07 9186   9.856   1.354   2.129
   72GLOH    O3 9187   9.989   1.507   2.177
   72GLOH   H01 9188   0.004   1.595   2.134
   73GLOH   H03 9189   1.667   8.828   4.766
   73GLOH    O1 9190   1.765   8.827   4.758
   73GLOH    C1 9191   1.800   8.849   4.620
   73GLOH   H02 9192   1.894   8.905   4.614
   73GLOH   H08 9193   1.725   8.911   4.570
   73GLOH    C2 9194   1.817   8.719   4.539
   73GLOH   H04 9195   1.842   8.749   4.436
   73GLOH    O2 9196   1.925   8.637   4.589
   73GLOH   H05 9197   1.934   8.649   4.687
   73GLOH    C3 9198   1.686   8.639   4.533
   73GLOH   H06 9199   1.639   8.640   4.631
   73GLOH   H07 9200   1.709   8.535   4.509
   73GLOH    O3 9201   1.596   8.694   4.435
   73GLOH   H01 9202   1.626   8.660   4.347
   74GLOH   H03 9203   3.467   4.176   4.189
   74GLOH    O1 9204   3.416   4.109   4.135
   74GLOH    C1 9205   3.314   4.054   4.220
   74GLOH   H02 9206   3.248   3.991   4.160
   74GLOH   H08 9207   3.251   4.134   4.259
   74GLOH    C2 9208   3.363   3.970   4.340
   74GLOH   H04 9209   3.436   4.029   4.397
   74GLOH    O2 9210   3.249   3.941   4.424
   74GLOH   H05 9211   3.178   3.896   4.373
   74GLOH    C3 9212   3.428   3.836   4.301
   74GLOH   H06 9213   3.356   3.778   4.243
   74GLOH   H07 9214   3.445   3.779   4.393
   74GLOH    O3 9215   3.553   3.846   4.229
   74GLOH   H01 9216   3.546   3.786   4.151
   75GLOH   H03 9217   0.657   9.681   1.748
   75GLOH    O1 9218   0.697   9.616   1.812
   75GLOH    C1 9219   0.711   9.682   1.940
   75GLOH   H02 9220   0.620   9.671   1.998
   75GLOH   H08 9221   0.727   9.789   1.926
   75GLOH    C2 9222   0.829   9.626   2.022
   75GLOH   H04 9223   0.919   9.634   1.960
   75GLOH    O2 9224   0.849   9.706   2.141
   75GLOH   H05 9225   0.908   9.653   2.202
   75GLOH    C3 9226   0.808   9.477   2.056
   75GLOH   H06 9227   0.900   9.439   2.100
   75GLOH   H07 9228   0.793   9.423   1.963
   75GLOH    O3 9229   0.698   9.453   2.146
   75GLOH   H01 9230   0.613   9.456   2.095
   76GLOH   H03 9231   0.591   9.214   3.497
   76GLOH    O1 9232   0.592   9.195   3.595
   76GLOH    C1 9233   0.455   9.203   3.640
   76GLOH   H02 9234   0.393   9.131   3.586
   76GLOH   H08 9235   0.414   9.302   3.621
   76GLOH    C2 9236   0.444   9.173   3.791
   76GLOH   H04 9237   0.504   9.248   3.844
   76GLOH    O2 9238   0.307   9.186   3.834
   76GLOH   H05 9239   0.306   9.170   3.933
   76GLOH    C3 9240   0.502   9.034   3.821
   76GLOH   H06 9241   0.440   8.958   3.772
   76GLOH   H07 9242   0.496   9.015   3.928
   76GLOH    O3 9243   0.638   9.024   3.777
   76GLOH   H01 9244   0.642   9.086   3.699
   77GLOH   H03 9245   8.041   6.547   5.465
   77GLOH    O1 9246   8.059   6.583   5.376
   77GLOH    C1 9247   7.954   6.544   5.284
   77GLOH   H02 9248   7.861   6.595   5.310
   77GLOH   H08 9249   7.934   6.437   5.292
   77GLOH    C2 9250   7.988   6.576   5.138
   77GLOH   H04 9251   8.078   6.518   5.110
   77GLOH    O2 9252   7.879   6.538   5.052
   77GLOH   H05 9253   7.912   6.512   4.964
   77GLOH    C3 9254   8.022   6.725   5.121
   77GLOH   H06 9255   7.933   6.785   5.145
   77GLOH   H07 9256   8.047   6.745   5.017
   77GLOH    O3 9257   8.131   6.763   5.207
   77GLOH   H01 9258   8.124   6.705   5.286
   78GLOH   H03 9259   8.194   9.049   0.921
   78GLOH    O1 9260   8.255   8.970   0.915
   78GLOH    C1 9261   8.391   9.017   0.909
   78GLOH   H02 9262   8.394   9.125   0.896
   78GLOH   H08 9263   8.440   8.974   0.822
   78GLOH    C2 9264   8.476   8.981   1.033
   78GLOH   H04 9265   8.475   8.872   1.046
   78GLOH    O2 9266   8.611   9.026   1.007
   78GLOH   H05 9267   8.658   9.042   1.094
   78GLOH    C3 9268   8.418   9.046   1.160
   78GLOH   H06 9269   8.315   9.014   1.172
   78GLOH   H07 9270   8.416   9.154   1.146
   78GLOH    O3 9271   8.494   9.013   1.278
   78GLOH   H01 9272   8.438   8.958   1.339
   79GLOH   H03 9273   4.298   3.302   4.827
   79GLOH    O1 9274   4.285   3.395   4.857
   79GLOH    C1 9275   4.203   3.463   4.759
   79GLOH   H02 9276   4.129   3.394   4.718
   79GLOH   H08 9277   4.265   3.496   4.675
   79GLOH    C2 9278   4.128   3.586   4.814
   79GLOH   H04 9279   4.094   3.645   4.727
   79GLOH    O2 9280   4.013   3.547   4.892
   79GLOH   H05 9281   3.939   3.523   4.833
   79GLOH    C3 9282   4.222   3.674   4.898
   79GLOH   H06 9283   4.318   3.683   4.846
   79GLOH   H07 9284   4.242   3.622   4.991
   79GLOH    O3 9285   4.169   3.805   4.926
   79GLOH   H01 9286   4.123   3.838   4.846
   80GLOH   H03 9287   5.371   8.840   4.539
   80GLOH    O1 9288   5.324   8.872   4.620
   80GLOH    C1 9289   5.393   8.980   4.686
   80GLOH   H02 9290   5.500   8.972   4.669
   80GLOH   H08 9291   5.378   8.973   4.794
   80GLOH    C2 9292   5.347   9.121   4.641
   80GLOH   H04 9293   5.401   9.194   4.703
   80GLOH    O2 9294   5.378   9.144   4.502
   80GLOH   H05 9295   5.380   9.057   4.457
   80GLOH    C3 9296   5.196   9.142   4.665
   80GLOH   H06 9297   5.141   9.084   4.591
   80GLOH   H07 9298   5.174   9.247   4.645
   80GLOH    O3 9299   5.153   9.107   4.797
   80GLOH   H01 9300   5.108   9.018   4.786
   81GLOH   H03 9301   4.594   2.038   3.300
   81GLOH    O1 9302   4.644   1.961   3.260
   81GLOH    C1 9303   4.563   1.842   3.269
   81GLOH   H02 9304   4.606   1.764   3.206
   81GLOH   H08 9305   4.463   1.862   3.228
   81GLOH    C2 9306   4.546   1.784   3.411
   81GLOH   H04 9307   4.485   1.694   3.402
   81GLOH    O2 9308   4.674   1.746   3.468
   81GLOH   H05 9309   4.658   1.674   3.535
   81GLOH    C3 9310   4.472   1.882   3.503
   81GLOH   H06 9311   4.533   1.972   3.515
   81GLOH   H07 9312   4.465   1.837   3.602
   81GLOH    O3 9313   4.340   1.917   3.456
   81GLOH   H01 9314   4.293   1.833   3.429
   82GLOH   H03 9315   4.733   1.239   1.107
   82GLOH    O1 9316   4.780   1.310   1.056
   82GLOH    C1 9317   4.797   1.422   1.145
   82GLOH   H02 9318   4.879   1.404   1.214
   82GLOH   H08 9319   4.707   1.435   1.206
   82GLOH    C2 9320   4.824   1.554   1.071
   82GLOH   H04 9321   4.745   1.568   0.996
   82GLOH    O2 9322   4.817   1.663   1.166
   82GLOH   H05 9323   4.830   1.751   1.121
   82GLOH    C3 9324   4.961   1.548   0.998
   82GLOH   H06 9325   4.996   1.445   0.998
   82GLOH   H07 9326   5.034   1.605   1.056
   82GLOH    O3 9327   4.956   1.598   0.863
   82GLOH   H01 9328   4.912   1.687   0.863
   83GLOH   H03 9329   3.412   5.248   3.265
   83GLOH    O1 9330   3.449   5.312   3.199
   83GLOH    C1 9331   3.449   5.445   3.257
   83GLOH   H02 9332   3.549   5.471   3.291
   83GLOH   H08 9333   3.383   5.449   3.344
   83GLOH    C2 9334   3.403   5.552   3.156
   83GLOH   H04 9335   3.299   5.529   3.128
   83GLOH    O2 9336   3.408   5.683   3.215
   83GLOH   H05 9337   3.344   5.743   3.167
   83GLOH    C3 9338   3.489   5.546   3.028
   83GLOH   H06 9339   3.592   5.573   3.054
   83GLOH   H07 9340   3.453   5.621   2.958
   83GLOH    O3 9341   3.485   5.415   2.970
   83GLOH   H01 9342   3.480   5.353   3.048
   84GLOH   H03 9343   8.515   5.684   0.132
   84GLOH    O1 9344   8.533   5.598   0.179
   84GLOH    C1 9345   8.433   5.500   0.142
   84GLOH   H02 9346   8.333   5.540   0.156
   84GLOH   H08 9347   8.441   5.413   0.207
   84GLOH    C2 9348   8.445   5.451   5.630
   84GLOH   H04 9349   8.366   5.376   5.614
   84GLOH    O2 9350   8.425   5.561   5.539
   84GLOH   H05 9351   8.352   5.618   5.571
   84GLOH    C3 9352   8.581   5.383   5.608
   84GLOH   H06 9353   8.659   5.459   5.616
   84GLOH   H07 9354   8.584   5.345   5.506
   84GLOH    O3 9355   8.606   5.276   0.068
   84GLOH   H01 9356   8.535   5.207   0.059
   85GLOH   H03 9357   4.864   1.764   4.977
   85GLOH    O1 9358   4.920   1.716   5.041
   85GLOH    C1 9359   4.964   1.805   5.145
   85GLOH   H02 9360   4.878   1.838   5.205
   85GLOH   H08 9361   5.009   1.895   5.103
   85GLOH    C2 9362   5.067   1.740   5.239
   85GLOH   H04 9363   5.154   1.714   5.179
   85GLOH    O2 9364   5.105   1.833   5.342
   85GLOH   H05 9365   5.164   1.790   5.407
   85GLOH    C3 9366   5.010   1.610   5.300
   85GLOH   H06 9367   4.922   1.634   5.360
   85GLOH   H07 9368   5.084   1.567   5.367
   85GLOH    O3 9369   4.976   1.518   5.196
   85GLOH   H01 9370   4.948   1.572   5.119
   86GLOH   H03 9371   9.773   0.947   3.792
   86GLOH    O1 9372   9.694   0.967   3.734
   86GLOH    C1 9373   9.714   0.901   3.607
   86GLOH   H02 9374   9.654   0.950   3.530
   86GLOH   H08 9375   9.680   0.798   3.613
   86GLOH    C2 9376   9.862   0.901   3.560
   86GLOH   H04 9377   9.898   1.005   3.564
   86GLOH    O2 9378   9.943   0.820   3.647
   86GLOH   H05 9379   9.932   0.853   3.741
   86GLOH    C3 9380   9.873   0.854   3.414
   86GLOH   H06 9381   9.828   0.755   3.406
   86GLOH   H07 9382   9.978   0.844   3.388
   86GLOH    O3 9383   9.808   0.945   3.323
   86GLOH   H01 9384   9.874   1.012   3.293
   87GLOH   H03 9385   7.498   2.082   2.332
   87GLOH    O1 9386   7.513   2.118   2.241
   87GLOH    C1 9387   7.428   2.233   2.221
   87GLOH   H02 9388   7.375   2.259   2.314
   87GLOH   H08 9389   7.351   2.209   2.148
   87GLOH    C2 9390   7.506   2.356   2.172
   87GLOH   H04 9391   7.549   2.331   2.074
   87GLOH    O2 9392   7.415   2.467   2.157
   87GLOH   H05 9393   7.454   2.548   2.200
   87GLOH    C3 9394   7.622   2.388   2.269
   87GLOH   H06 9395   7.683   2.298   2.281
   87GLOH   H07 9396   7.580   2.410   2.367
   87GLOH    O3 9397   7.704   2.497   2.224
   87GLOH   H01 9398   7.747   2.469   2.138
   88GLOH   H03 9399   4.437   7.002   2.732
   88GLOH    O1 9400   4.535   6.999   2.748
   88GLOH    C1 9401   4.565   6.943   2.878
   88GLOH   H02 9402   4.583   7.023   2.949
   88GLOH   H08 9403   4.657   6.885   2.873
   88GLOH    C2 9404   4.456   6.852   2.940
   88GLOH   H04 9405   4.368   6.914   2.965
   88GLOH    O2 9406   4.417   6.746   2.851
   88GLOH   H05 9407   4.333   6.702   2.887
   88GLOH    C3 9408   4.510   6.791   3.071
   88GLOH   H06 9409   4.593   6.724   3.045
   88GLOH   H07 9410   4.432   6.728   3.113
   88GLOH    O3 9411   4.554   6.887   3.169
   88GLOH   H01 9412   4.596   6.833   3.242
   89GLOH   H03 9413   7.023   7.089   3.270
   89GLOH    O1 9414   7.031   7.011   3.208
   89GLOH    C1 9415   6.919   7.010   3.118
   89GLOH   H02 9416   6.953   6.992   3.016
   89GLOH   H08 9417   6.868   7.107   3.117
   89GLOH    C2 9418   6.818   6.901   3.156
   89GLOH   H04 9419   6.870   6.804   3.152
   89GLOH    O2 9420   6.769   6.923   3.290
   89GLOH   H05 9421   6.843   6.961   3.343
   89GLOH    C3 9422   6.699   6.896   3.059
   89GLOH   H06 9423   6.643   6.989   3.067
   89GLOH   H07 9424   6.632   6.816   3.093
   89GLOH    O3 9425   6.734   6.872   2.921
   89GLOH   H01 9426   6.649   6.873   2.870
   90GLOH   H03 9427   8.014   4.446   3.587
   90GLOH    O1 9428   7.965   4.394   3.655
   90GLOH    C1 9429   7.983   4.255   3.624
   90GLOH   H02 9430   7.904   4.221   3.559
   90GLOH   H08 9431   7.977   4.195   3.715
   90GLOH    C2 9432   8.119   4.226   3.557
   90GLOH   H04 9433   8.198   4.245   3.631
   90GLOH    O2 9434   8.128   4.088   3.514
   90GLOH   H05 9435   8.153   4.031   3.592
   90GLOH    C3 9436   8.141   4.323   3.439
   90GLOH   H06 9437   8.063   4.306   3.364
   90GLOH   H07 9438   8.236   4.299   3.391
   90GLOH    O3 9439   8.139   4.461   3.482
   90GLOH   H01 9440   8.138   4.520   3.402
   91GLOH   H03 9441   7.806   2.132   4.246
   91GLOH    O1 9442   7.779   2.092   4.159
   91GLOH    C1 9443   7.679   1.990   4.183
   91GLOH   H02 9444   7.586   2.035   4.218
   91GLOH   H08 9445   7.712   1.921   4.260
   91GLOH    C2 9446   7.647   1.908   4.057
   91GLOH   H04 9447   7.739   1.859   4.023
   91GLOH    O2 9448   7.548   1.808   4.085
   91GLOH   H05 9449   7.541   1.746   4.007
   91GLOH    C3 9450   7.597   2.001   3.945
   91GLOH   H06 9451   7.504   2.048   3.977
   91GLOH   H07 9452   7.574   1.941   3.856
   91GLOH    O3 9453   7.697   2.099   3.915
   91GLOH   H01 9454   7.742   2.116   4.002
   92GLOH   H03 9455   2.321   3.503   1.646
   92GLOH    O1 9456   2.389   3.473   1.581
   92GLOH    C1 9457   2.374   3.331   1.559
   92GLOH   H02 9458   2.388   3.277   1.652
   92GLOH   H08 9459   2.453   3.296   1.492
   92GLOH    C2 9460   2.238   3.291   1.498
   92GLOH   H04 9461   2.221   3.350   1.407
   92GLOH    O2 9462   2.238   3.150   1.465
   92GLOH   H05 9463   2.255   3.138   1.367
   92GLOH    C3 9464   2.123   3.319   1.597
   92GLOH   H06 9465   2.140   3.260   1.687
   92GLOH   H07 9466   2.031   3.282   1.552
   92GLOH    O3 9467   2.109   3.458   1.630
   92GLOH   H01 9468   2.085   3.505   1.545
   93GLOH   H03 9469   4.754   8.642   5.333
   93GLOH    O1 9470   4.708   8.675   5.413
   93GLOH    C1 9471   4.711   8.819   5.409
   93GLOH   H02 9472   4.708   8.855   5.306
   93GLOH   H08 9473   4.804   8.856   5.453
   93GLOH    C2 9474   4.593   8.883   5.486
   93GLOH   H04 9475   4.595   8.847   5.590
   93GLOH    O2 9476   4.605   9.026   5.484
   93GLOH   H05 9477   4.690   9.054   5.529
   93GLOH    C3 9478   4.460   8.840   5.422
   93GLOH   H06 9479   4.458   8.731   5.415
   93GLOH   H07 9480   4.457   8.878   5.320
   93GLOH    O3 9481   4.344   8.886   5.495
   93GLOH   H01 9482   4.265   8.880   5.439
   94GLOH   H03 9483   7.304   4.403   0.286
   94GLOH    O1 9484   7.208   4.409   0.308
   94GLOH    C1 9485   7.132   4.416   0.186
   94GLOH   H02 9486   7.026   4.415   0.208
   94GLOH   H08 9487   7.152   4.328   0.124
   94GLOH    C2 9488   7.162   4.543   0.102
   94GLOH   H04 9489   7.146   4.631   0.165
   94GLOH    O2 9490   7.298   4.545   0.052
   94GLOH   H05 9491   7.295   4.497   5.600
   94GLOH    C3 9492   7.063   4.550   5.618
   94GLOH   H06 9493   7.081   4.643   5.564
   94GLOH   H07 9494   6.962   4.554   0.023
   94GLOH    O3 9495   7.079   4.438   5.529
   94GLOH   H01 9496   7.015   4.367   5.552
   95GLOH   H03 9497   4.806   1.489   0.011
   95GLOH    O1 9498   4.855   1.404   0.003
   95GLOH    C1 9499   4.825   1.327   0.120
   95GLOH   H02 9500   4.722   1.292   0.118
   95GLOH   H08 9501   4.836   1.389   0.208
   95GLOH    C2 9502   4.917   1.204   0.138
   95GLOH   H04 9503   5.021   1.240   0.145
   95GLOH    O2 9504   4.883   1.133   0.259
   95GLOH   H05 9505   4.850   1.199   0.328
   95GLOH    C3 9506   4.906   1.113   0.015
   95GLOH   H06 9507   4.804   1.076   0.007
   95GLOH   H07 9508   4.971   1.026   0.029
   95GLOH    O3 9509   4.943   1.183   5.529
   95GLOH   H01 9510   4.914   1.277   5.540
   96GLOH   H03 9511   7.351   9.046   2.485
   96GLOH    O1 9512   7.308   8.957   2.493
   96GLOH    C1 9513   7.195   8.956   2.403
   96GLOH   H02 9514   7.141   9.051   2.409
   96GLOH   H08 9515   7.125   8.879   2.432
   96GLOH    C2 9516   7.235   8.932   2.256
   96GLOH   H04 9517   7.290   8.837   2.251
   96GLOH    O2 9518   7.117   8.923   2.174
   96GLOH   H05 9519   7.144   8.878   2.088
   96GLOH    C3 9520   7.326   9.044   2.203
   96GLOH   H06 9521   7.274   9.139   2.214
   96GLOH   H07 9522   7.340   9.028   2.096
   96GLOH    O3 9523   7.454   9.050   2.269
   96GLOH   H01 9524   7.504   8.966   2.251
   97GLOH   H03 9525   1.586   5.766   2.338
   97GLOH    O1 9526   1.546   5.676   2.322
   97GLOH    C1 9527   1.502   5.671   2.184
   97GLOH   H02 9528   1.581   5.706   2.118
   97GLOH   H08 9529   1.418   5.739   2.170
   97GLOH    C2 9530   1.458   5.531   2.136
   97GLOH   H04 9531   1.414   5.542   2.036
   97GLOH    O2 9532   1.570   5.440   2.127
   97GLOH   H05 9533   1.628   5.467   2.050
   97GLOH    C3 9534   1.350   5.472   2.228
   97GLOH   H06 9535   1.395   5.453   2.326
   97GLOH   H07 9536   1.321   5.374   2.188
   97GLOH    O3 9537   1.233   5.555   2.243
   97GLOH   H01 9538   1.213   5.601   2.157
   98GLOH   H03 9539   5.176   8.935   2.609
   98GLOH    O1 9540   5.125   9.020   2.607
   98GLOH    C1 9541   5.082   9.046   2.742
   98GLOH   H02 9542   5.031   9.143   2.747
   98GLOH   H08 9543   5.168   9.052   2.809
   98GLOH    C2 9544   4.986   8.939   2.795
   98GLOH   H04 9545   5.032   8.840   2.786
   98GLOH    O2 9546   4.962   8.968   2.934
   98GLOH   H05 9547   4.886   8.917   2.970
   98GLOH    C3 9548   4.856   8.941   2.712
   98GLOH   H06 9549   4.882   8.942   2.606
   98GLOH   H07 9550   4.804   9.035   2.732
   98GLOH    O3 9551   4.770   8.830   2.740
   98GLOH   H01 9552   4.676   8.864   2.729
   99GLOH   H03 9553   3.929   5.409   2.489
   99GLOH    O1 9554   3.995   5.462   2.435
   99GLOH    C1 9555   4.017   5.587   2.501
   99GLOH   H02 9556   4.090   5.646   2.445
   99GLOH   H08 9557   4.061   5.570   2.599
   99GLOH    C2 9558   3.890   5.673   2.520
   99GLOH   H04 9559   3.821   5.615   2.583
   99GLOH    O2 9560   3.921   5.796   2.588
   99GLOH   H05 9561   3.835   5.846   2.599
   99GLOH    C3 9562   3.820   5.702   2.385
   99GLOH   H06 9563   3.897   5.718   2.310
   99GLOH   H07 9564   3.764   5.795   2.394
   99GLOH    O3 9565   3.732   5.596   2.342
   99GLOH   H01 9566   3.660   5.586   2.410
  100GLOH   H03 9567   5.000   8.635   5.149
  100GLOH    O1 9568   4.930   8.703   5.150
  100GLOH    C1 9569   4.990   8.834   5.152
  100GLOH   H02 9570   5.094   8.829   5.186
  100GLOH   H08 9571   4.937   8.897   5.224
  100GLOH    C2 9572   4.989   8.908   5.016
  100GLOH   H04 9573   4.884   8.926   4.988
  100GLOH    O2 9574   5.055   9.035   5.035
  100GLOH   H05 9575   5.081   9.075   4.949
  100GLOH    C3 9576   5.055   8.825   4.904
  100GLOH   H06 9577   5.010   8.726   4.902
  100GLOH   H07 9578   5.160   8.812   4.929
  100GLOH    O3 9579   5.041   8.889   4.776
  100GLOH   H01 9580   5.063   8.826   4.702
  101GLOH   H03 9581   4.719   4.124   2.425
  101GLOH    O1 9582   4.756   4.141   2.515
  101GLOH    C1 9583   4.870   4.057   2.540
  101GLOH   H02 9584   4.854   3.957   2.498
  101GLOH   H08 9585   4.884   4.043   2.647
  101GLOH    C2 9586   5.001   4.115   2.482
  101GLOH   H04 9587   5.022   4.208   2.537
  101GLOH    O2 9588   5.113   4.025   2.500
  101GLOH   H05 9589   5.089   3.933   2.468
  101GLOH    C3 9590   4.982   4.154   2.334
  101GLOH   H06 9591   5.077   4.191   2.296
  101GLOH   H07 9592   4.912   4.237   2.329
  101GLOH    O3 9593   4.935   4.045   2.253
  101GLOH   H01 9594   4.918   4.084   2.163
  102GLOH   H03 9595   5.156   2.589   3.761
  102GLOH    O1 9596   5.179   2.530   3.685
  102GLOH    C1 9597   5.081   2.549   3.581
  102GLOH   H02 9598   5.118   2.619   3.507
  102GLOH   H08 9599   4.989   2.592   3.622
  102GLOH    C2 9600   5.046   2.416   3.512
  102GLOH   H04 9601   5.002   2.349   3.587
  102GLOH    O2 9602   4.949   2.437   3.406
  102GLOH   H05 9603   4.891   2.353   3.404
  102GLOH    C3 9604   5.173   2.349   3.458
  102GLOH   H06 9605   5.218   2.413   3.382
  102GLOH   H07 9606   5.146   2.255   3.409
  102GLOH    O3 9607   5.266   2.325   3.565
  102GLOH   H01 9608   5.254   2.402   3.626
  103GLOH   H03 9609   0.913   5.634   0.546
  103GLOH    O1 9610   0.995   5.666   0.593
  103GLOH    C1 9611   1.055   5.550   0.654
  103GLOH   H02 9612   1.077   5.475   0.579
  103GLOH   H08 9613   0.986   5.505   0.726
  103GLOH    C2 9614   1.185   5.587   0.728
  103GLOH   H04 9615   1.157   5.651   0.813
  103GLOH    O2 9616   1.252   5.470   0.779
  103GLOH   H05 9617   1.277   5.411   0.702
  103GLOH    C3 9618   1.276   5.670   0.635
  103GLOH   H06 9619   1.294   5.613   0.544
  103GLOH   H07 9620   1.372   5.684   0.684
  103GLOH    O3 9621   1.214   5.796   0.606
  103GLOH   H01 9622   1.118   5.772   0.592
  104GLOH   H03 9623   7.069   7.093   1.968
  104GLOH    O1 9624   7.100   7.006   2.006
  104GLOH    C1 9625   7.191   6.949   1.911
  104GLOH   H02 9626   7.172   6.987   1.810
  104GLOH   H08 9627   7.176   6.841   1.906
  104GLOH    C2 9628   7.339   6.976   1.946
  104GLOH   H04 9629   7.346   7.081   1.979
  104GLOH    O2 9630   7.384   6.891   2.054
  104GLOH   H05 9631   7.471   6.930   2.088
  104GLOH    C3 9632   7.430   6.959   1.823
  104GLOH   H06 9633   7.412   6.861   1.780
  104GLOH   H07 9634   7.534   6.960   1.857
  104GLOH    O3 9635   7.410   7.062   1.725
  104GLOH   H01 9636   7.498   7.081   1.683
  105GLOH   H03 9637   3.495   5.062   4.304
  105GLOH    O1 9638   3.513   5.007   4.385
  105GLOH    C1 9639   3.611   5.075   4.467
  105GLOH   H02 9640   3.706   5.080   4.414
  105GLOH   H08 9641   3.629   5.018   4.558
  105GLOH    C2 9642   3.572   5.219   4.508
  105GLOH   H04 9643   3.656   5.260   4.566
  105GLOH    O2 9644   3.550   5.305   4.394
  105GLOH   H05 9645   3.627   5.296   4.331
  105GLOH    C3 9646   3.449   5.219   4.599
  105GLOH   H06 9647   3.370   5.160   4.551
  105GLOH   H07 9648   3.411   5.321   4.608
  105GLOH    O3 9649   3.478   5.165   4.729
  105GLOH   H01 9650   3.536   5.226   4.778
  106GLOH   H03 9651   4.153   3.868   5.068
  106GLOH    O1 9652   4.123   3.908   5.154
  106GLOH    C1 9653   4.060   3.805   5.232
  106GLOH   H02 9654   4.134   3.754   5.294
  106GLOH   H08 9655   4.015   3.729   5.168
  106GLOH    C2 9656   3.950   3.862   5.325
  106GLOH   H04 9657   3.874   3.910   5.261
  106GLOH    O2 9658   3.888   3.754   5.398
  106GLOH   H05 9659   3.813   3.719   5.346
  106GLOH    C3 9660   4.010   3.968   5.419
  106GLOH   H06 9661   4.060   4.044   5.358
  106GLOH   H07 9662   4.087   3.921   5.480
  106GLOH    O3 9663   3.911   4.031   5.502
  106GLOH   H01 9664   3.955   4.104   5.552
  107GLOH   H03 9665   9.662   1.027   0.390
  107GLOH    O1 9666   9.602   1.098   0.426
  107GLOH    C1 9667   9.675   1.185   0.516
  107GLOH   H02 9668   9.606   1.227   0.590
  107GLOH   H08 9669   9.716   1.269   0.461
  107GLOH    C2 9670   9.789   1.115   0.592
  107GLOH   H04 9671   9.749   1.021   0.633
  107GLOH    O2 9672   9.898   1.084   0.501
  107GLOH   H05 9673   9.965   1.027   0.549
  107GLOH    C3 9674   9.833   1.203   0.711
  107GLOH   H06 9675   9.919   1.156   0.759
  107GLOH   H07 9676   9.752   1.202   0.784
  107GLOH    O3 9677   9.863   1.338   0.672
  107GLOH   H01 9678   9.861   1.397   0.751
  108GLOH   H03 9679   4.489   2.643   4.873
  108GLOH    O1 9680   4.452   2.566   4.919
  108GLOH    C1 9681   4.474   2.448   4.839
  108GLOH   H02 9682   4.474   2.360   4.903
  108GLOH   H08 9683   4.572   2.453   4.791
  108GLOH    C2 9684   4.366   2.429   4.731
  108GLOH   H04 9685   4.393   2.342   4.670
  108GLOH    O2 9686   4.238   2.407   4.793
  108GLOH   H05 9687   4.239   2.453   4.879
  108GLOH    C3 9688   4.359   2.552   4.638
  108GLOH   H06 9689   4.321   2.637   4.696
  108GLOH   H07 9690   4.286   2.531   4.560
  108GLOH    O3 9691   4.486   2.585   4.580
  108GLOH   H01 9692   4.472   2.633   4.495
  109GLOH   H03 9693   3.301   2.389   3.100
  109GLOH    O1 9694   3.326   2.317   3.037
  109GLOH    C1 9695   3.463   2.342   2.999
  109GLOH   H02 9696   3.510   2.411   3.069
  109GLOH   H08 9697   3.467   2.389   2.901
  109GLOH    C2 9698   3.550   2.214   2.994
  109GLOH   H04 9699   3.653   2.246   2.974
  109GLOH    O2 9700   3.549   2.145   3.121
  109GLOH   H05 9701   3.593   2.204   3.189
  109GLOH    C3 9702   3.508   2.123   2.877
  109GLOH   H06 9703   3.399   2.118   2.874
  109GLOH   H07 9704   3.543   2.022   2.897
  109GLOH    O3 9705   3.560   2.171   2.751
  109GLOH   H01 9706   3.657   2.147   2.751
  110GLOH   H03 9707   4.966   0.503   2.398
  110GLOH    O1 9708   5.058   0.487   2.363
  110GLOH    C1 9709   5.129   0.403   2.456
  110GLOH   H02 9710   5.225   0.374   2.414
  110GLOH   H08 9711   5.074   0.311   2.474
  110GLOH    C2 9712   5.154   0.475   2.590
  110GLOH   H04 9713   5.057   0.506   2.631
  110GLOH    O2 9714   5.218   0.388   2.686
  110GLOH   H05 9715   5.157   0.376   2.765
  110GLOH    C3 9716   5.240   0.600   2.565
  110GLOH   H06 9717   5.338   0.569   2.530
  110GLOH   H07 9718   5.254   0.652   2.660
  110GLOH    O3 9719   5.176   0.685   2.468
  110GLOH   H01 9720   5.134   0.623   2.404
  111GLOH   H03 9721   4.405   3.410   4.964
  111GLOH    O1 9722   4.481   3.402   5.027
  111GLOH    C1 9723   4.481   3.514   5.117
  111GLOH   H02 9724   4.521   3.483   5.214
  111GLOH   H08 9725   4.380   3.549   5.135
  111GLOH    C2 9726   4.567   3.630   5.064
  111GLOH   H04 9727   4.550   3.641   4.955
  111GLOH    O2 9728   4.532   3.753   5.130
  111GLOH   H05 9729   4.582   3.755   5.214
  111GLOH    C3 9730   4.716   3.601   5.088
  111GLOH   H06 9731   4.775   3.670   5.028
  111GLOH   H07 9732   4.737   3.501   5.051
  111GLOH    O3 9733   4.753   3.610   5.227
  111GLOH   H01 9734   4.849   3.595   5.236
  112GLOH   H03 9735   6.587   0.752   1.361
  112GLOH    O1 9736   6.676   0.749   1.317
  112GLOH    C1 9737   6.683   0.863   1.229
  112GLOH   H02 9738   6.670   0.955   1.286
  112GLOH   H08 9739   6.603   0.860   1.155
  112GLOH    C2 9740   6.817   0.873   1.153
  112GLOH   H04 9741   6.827   0.785   1.088
  112GLOH    O2 9742   6.817   0.992   1.071
  112GLOH   H05 9743   6.910   1.026   1.058
  112GLOH    C3 9744   6.936   0.874   1.251
  112GLOH   H06 9745   6.937   0.969   1.304
  112GLOH   H07 9746   7.029   0.870   1.193
  112GLOH    O3 9747   6.930   0.764   1.343
  112GLOH   H01 9748   6.834   0.739   1.347
  113GLOH   H03 9749   8.932   0.004   3.200
  113GLOH    O1 9750   8.854   9.952   3.166
  113GLOH    C1 9751   8.734   0.027   3.193
  113GLOH   H02 9752   8.746   0.132   3.164
  113GLOH   H08 9753   8.714   0.027   3.300
  113GLOH    C2 9754   8.610   9.971   3.120
  113GLOH   H04 9755   8.594   9.867   3.154
  113GLOH    O2 9756   8.492   0.049   3.151
  113GLOH   H05 9757   8.410   9.995   3.130
  113GLOH    C3 9758   8.635   9.969   2.968
  113GLOH   H06 9759   8.652   0.071   2.934
  113GLOH   H07 9760   8.546   9.933   2.918
  113GLOH    O3 9761   8.748   9.886   2.935
  113GLOH   H01 9762   8.814   9.900   3.008
  114GLOH   H03 9763   2.848   1.170   3.404
  114GLOH    O1 9764   2.829   1.201   3.311
  114GLOH    C1 9765   2.956   1.242   3.255
  114GLOH   H02 9766   2.971   1.195   3.158
  114GLOH   H08 9767   3.038   1.208   3.319
  114GLOH    C2 9768   2.969   1.394   3.239
  114GLOH   H04 9769   2.937   1.442   3.333
  114GLOH    O2 9770   3.107   1.429   3.215
  114GLOH   H05 9771   3.131   1.407   3.122
  114GLOH    C3 9772   2.879   1.446   3.126
  114GLOH   H06 9773   2.892   1.554   3.119
  114GLOH   H07 9774   2.775   1.429   3.155
  114GLOH    O3 9775   2.905   1.384   2.999
  114GLOH   H01 9776   3.001   1.395   2.977
  115GLOH   H03 9777   5.973   8.342   1.665
  115GLOH    O1 9778   5.940   8.330   1.572
  115GLOH    C1 9779   5.843   8.432   1.541
  115GLOH   H02 9780   5.806   8.417   1.439
  115GLOH   H08 9781   5.889   8.530   1.543
  115GLOH    C2 9782   5.722   8.432   1.637
  115GLOH   H04 9783   5.677   8.331   1.637
  115GLOH    O2 9784   5.762   8.466   1.771
  115GLOH   H05 9785   5.806   8.556   1.770
  115GLOH    C3 9786   5.614   8.532   1.589
  115GLOH   H06 9787   5.655   8.633   1.598
  115GLOH   H07 9788   5.530   8.526   1.658
  115GLOH    O3 9789   5.570   8.508   1.455
  115GLOH   H01 9790   5.484   8.556   1.444
  116GLOH   H03 9791   0.004   0.759   5.366
  116GLOH    O1 9792   0.033   0.725   5.279
  116GLOH    C1 9793   9.918   0.697   5.197
  116GLOH   H02 9794   9.949   0.663   5.098
  116GLOH   H08 9795   9.858   0.787   5.182
  116GLOH    C2 9796   9.827   0.588   5.258
  116GLOH   H04 9797   9.800   0.619   5.360
  116GLOH    O2 9798   9.707   0.572   5.180
  116GLOH   H05 9799   9.635   0.626   5.218
  116GLOH    C3 9800   9.903   0.454   5.268
  116GLOH   H06 9801   9.995   0.470   5.324
  116GLOH   H07 9802   9.933   0.424   5.167
  116GLOH    O3 9803   9.824   0.352   5.329
  116GLOH   H01 9804   9.738   0.350   5.282
  117GLOH   H03 9805   7.359   5.260   5.542
  117GLOH    O1 9806   7.401   5.292   5.624
  117GLOH    C1 9807   7.417   5.182   0.082
  117GLOH   H02 9808   7.495   5.114   0.047
  117GLOH   H08 9809   7.325   5.124   0.090
  117GLOH    C2 9810   7.456   5.229   0.224
  117GLOH   H04 9811   7.375   5.294   0.262
  117GLOH    O2 9812   7.472   5.117   0.313
  117GLOH   H05 9813   7.457   5.031   0.265
  117GLOH    C3 9814   7.586   5.312   0.218
  117GLOH   H06 9815   7.668   5.247   0.189
  117GLOH   H07 9816   7.607   5.349   0.318
  117GLOH    O3 9817   7.574   5.422   0.126
  117GLOH   H01 9818   7.507   5.393   0.059
  118GLOH   H03 9819   3.028   5.880   3.430
  118GLOH    O1 9820   2.987   5.942   3.497
  118GLOH    C1 9821   3.091   6.025   3.555
  118GLOH   H02 9822   3.057   6.128   3.565
  118GLOH   H08 9823   3.179   6.028   3.490
  118GLOH    C2 9824   3.135   5.974   3.694
  118GLOH   H04 9825   3.180   5.875   3.681
  118GLOH    O2 9826   3.234   6.063   3.751
  118GLOH   H05 9827   3.232   6.056   3.851
  118GLOH    C3 9828   3.012   5.959   3.786
  118GLOH   H06 9829   2.965   6.057   3.798
  118GLOH   H07 9830   3.045   5.927   3.884
  118GLOH    O3 9831   2.919   5.864   3.731
  118GLOH   H01 9832   2.926   5.877   3.633
  119GLOH   H03 9833   6.557   8.846   4.180
  119GLOH    O1 9834   6.503   8.783   4.233
  119GLOH    C1 9835   6.362   8.804   4.206
  119GLOH   H02 9836   6.325   8.885   4.269
  119GLOH   H08 9837   6.305   8.716   4.233
  119GLOH    C2 9838   6.331   8.838   4.058
  119GLOH   H04 9839   6.390   8.927   4.030
  119GLOH    O2 9840   6.366   8.729   3.970
  119GLOH   H05 9841   6.373   8.764   3.877
  119GLOH    C3 9842   6.182   8.872   4.039
  119GLOH   H06 9843   6.124   8.784   4.065
  119GLOH   H07 9844   6.165   8.892   3.933
  119GLOH    O3 9845   6.136   8.985   4.118
  119GLOH   H01 9846   6.206   9.056   4.119
  120GLOH   H03 9847   2.303   8.931   4.871
  120GLOH    O1 9848   2.365   8.997   4.832
  120GLOH    C1 9849   2.478   9.011   4.920
  120GLOH   H02 9850   2.567   9.033   4.862
  120GLOH   H08 9851   2.497   8.917   4.973
  120GLOH    C2 9852   2.458   9.123   5.024
  120GLOH   H04 9853   2.543   9.120   5.094
  120GLOH    O2 9854   2.454   9.250   4.958
  120GLOH   H05 9855   2.409   9.238   4.872
  120GLOH    C3 9856   2.329   9.102   5.104
  120GLOH   H06 9857   2.244   9.112   5.037
  120GLOH   H07 9858   2.321   9.183   5.177
  120GLOH    O3 9859   2.324   8.974   5.171
  120GLOH   H01 9860   2.364   8.983   5.260
  121ACOH    H4 9861   5.992   7.290   4.196
  121ACOH    O2 9862   6.043   7.246   4.269
  121ACOH    C2 9863   6.171   7.229   4.230
  121ACOH    O1 9864   6.224   7.275   4.131
  121ACOH    C1 9865   6.248   7.155   4.333
  121ACOH    H1 9866   6.318   7.222   4.381
  121ACOH    H2 9867   6.303   7.073   4.287
  121ACOH    H3 9868   6.181   7.114   4.408
  122ACOH    H4 9869   4.704   5.494   2.053
  122ACOH    O2 9870   4.798   5.467   2.073
  122ACOH    C2 9871   4.830   5.366   1.992
  122ACOH    O1 9872   4.758   5.309   1.911
  122ACOH    C1 9873   4.971   5.326   2.012
  122ACOH    H1 9874   4.996   5.238   1.954
  122ACOH    H2 9875   4.988   5.306   2.118
  122ACOH    H3 9876   5.036   5.408   1.981
  123ACOH    H4 9877   5.396   9.162   1.066
  123ACOH    O2 9878   5.458   9.179   0.990
  123ACOH    C2 9879   5.484   9.311   0.990
  123ACOH    O1 9880   5.416   9.398   1.042
  123ACOH    C1 9881   5.601   9.342   0.904
  123ACOH    H1 9882   5.673   9.400   0.960
  123ACOH    H2 9883   5.568   9.399   0.817
  123ACOH    H3 9884   5.648   9.251   0.870
  124ACOH    H4 9885   7.841   5.626   3.935
  124ACOH    O2 9886   7.757   5.680   3.930
  124ACOH    C2 9887   7.657   5.593   3.909
  124ACOH    O1 9888   7.667   5.475   3.879
  124ACOH    C1 9889   7.526   5.664   3.912
  124ACOH    H1 9890   7.528   5.748   3.843
  124ACOH    H2 9891   7.509   5.701   4.013
  124ACOH    H3 9892   7.445   5.597   3.885
  125ACOH    H4 9893   7.040   3.315   0.104
  125ACOH    O2 9894   7.054   3.248   0.176
  125ACOH    C2 9895   7.027   3.313   0.291
  125ACOH    O1 9896   6.957   3.412   0.303
  125ACOH    C1 9897   7.081   3.241   0.409
  125ACOH    H1 9898   7.153   3.304   0.459
  125ACOH    H2 9899   7.128   3.148   0.379
  125ACOH    H3 9900   7.000   3.219   0.478
  126ACOH    H4 9901   5.121   3.345   0.069
  126ACOH    O2 9902   5.181   3.344   5.624
  126ACOH    C2 9903   5.264   3.240   0.003
  126ACOH    O1 9904   5.246   3.142   0.073
  126ACOH    C1 9905   5.372   3.245   5.536
  126ACOH    H1 9906   5.469   3.236   5.585
  126ACOH    H2 9907   5.369   3.339   5.481
  126ACOH    H3 9908   5.360   3.163   5.465
  127ACOH    H4 9909   5.772   8.923   0.931
  127ACOH    O2 9910   5.767   9.005   0.985
  127ACOH    C2 9911   5.685   8.980   1.088
  127ACOH    O1 9912   5.612   8.884   1.103
  127ACOH    C1 9913   5.695   9.087   1.190
  127ACOH    H1 9914   5.764   9.165   1.158
  127ACOH    H2 9915   5.731   9.045   1.284
  127ACOH    H3 9916   5.598   9.132   1.206
  128ACOH    H4 9917   5.148   5.266   1.220
  128ACOH    O2 9918   5.203   5.199   1.170
  128ACOH    C2 9919   5.248   5.261   1.059
  128ACOH    O1 9920   5.241   5.381   1.035
  128ACOH    C1 9921   5.320   5.168   0.969
  128ACOH    H1 9922   5.271   5.166   0.872
  128ACOH    H2 9923   5.321   5.068   1.011
  128ACOH    H3 9924   5.423   5.202   0.956
  129ACOH    H4 9925   6.250   6.660   3.916
  129ACOH    O2 9926   6.274   6.568   3.885
  129ACOH    C2 9927   6.398   6.575   3.835
  129ACOH    O1 9928   6.474   6.670   3.840
  129ACOH    C1 9929   6.436   6.445   3.775
  129ACOH    H1 9930   6.535   6.452   3.729
  129ACOH    H2 9931   6.363   6.417   3.699
  129ACOH    H3 9932   6.439   6.369   3.852
  130ACOH    H4 9933   7.151   3.724   4.700
  130ACOH    O2 9934   7.156   3.627   4.707
  130ACOH    C2 9935   7.085   3.577   4.605
  130ACOH    O1 9936   7.031   3.641   4.517
  130ACOH    C1 9937   7.084   3.429   4.610
  130ACOH    H1 9938   7.185   3.392   4.600
  130ACOH    H2 9939   7.022   3.388   4.530
  130ACOH    H3 9940   7.044   3.397   4.706
  131ACOH    H4 9941   5.034   2.070   1.617
  131ACOH    O2 9942   5.100   2.060   1.690
  131ACOH    C2 9943   5.139   1.932   1.696
  131ACOH    O1 9944   5.095   1.839   1.631
  131ACOH    C1 9945   5.243   1.914   1.800
  131ACOH    H1 9946   5.202   1.940   1.897
  131ACOH    H2 9947   5.327   1.978   1.778
  131ACOH    H3 9948   5.277   1.810   1.803
  132ACOH    H4 9949   2.372   6.488   0.216
  132ACOH    O2 9950   2.346   6.584   0.222
  132ACOH    C2 9951   2.458   6.657   0.218
  132ACOH    O1 9952   2.568   6.621   0.256
  132ACOH    C1 9953   2.426   6.799   0.191
  132ACOH    H1 9954   2.512   6.864   0.210
  132ACOH    H2 9955   2.344   6.832   0.255
  132ACOH    H3 9956   2.395   6.811   0.088
  133ACOH    H4 9957   9.211   7.247   4.224
  133ACOH    O2 9958   9.191   7.293   4.139
  133ACOH    C2 9959   9.177   7.424   4.163
  133ACOH    O1 9960   9.142   7.474   4.268
  133ACOH    C1 9961   9.179   7.499   4.035
  133ACOH    H1 9962   9.112   7.451   3.964
  133ACOH    H2 9963   9.280   7.499   3.995
  133ACOH    H3 9964   9.147   7.602   4.049
  134ACOH    H4 9965   2.763   0.290   1.353
  134ACOH    O2 9966   2.715   0.337   1.427
  134ACOH    C2 9967   2.594   0.368   1.378
  134ACOH    O1 9968   2.551   0.340   1.268
  134ACOH    C1 9969   2.509   0.435   1.480
  134ACOH    H1 9970   2.481   0.534   1.443
  134ACOH    H2 9971   2.562   0.446   1.574
  134ACOH    H3 9972   2.419   0.377   1.496
  135ACOH    H4 9973   3.192   5.083   3.674
  135ACOH    O2 9974   3.289   5.097   3.655
  135ACOH    C2 9975   3.356   5.019   3.743
  135ACOH    O1 9976   3.308   4.936   3.818
  135ACOH    C1 9977   3.501   5.049   3.737
  135ACOH    H1 9978   3.554   4.991   3.812
  135ACOH    H2 9979   3.518   5.154   3.756
  135ACOH    H3 9980   3.539   5.023   3.639
  136ACOH    H4 9981   9.214   3.522   3.347
  136ACOH    O2 9982   9.209   3.555   3.253
  136ACOH    C2 9983   9.103   3.638   3.247
  136ACOH    O1 9984   9.033   3.674   3.340
  136ACOH    C1 9985   9.086   3.689   3.109
  136ACOH    H1 9986   9.068   3.607   3.041
  136ACOH    H2 9987   9.176   3.742   3.078
  136ACOH    H3 9988   9.002   3.758   3.103
  137ACOH    H4 9989   3.355   5.841   0.269
  137ACOH    O2 9990   3.430   5.904   0.250
  137ACOH    C2 9991   3.483   5.865   0.133
  137ACOH    O1 9992   3.422   5.811   0.043
  137ACOH    C1 9993   3.614   5.931   0.112
  137ACOH    H1 9994   3.685   5.860   0.070
  137ACOH    H2 9995   3.653   5.969   0.206
  137ACOH    H3 9996   3.602   6.014   0.043
  138ACOH    H4 9997   5.785   4.505   0.246
  138ACOH    O2 9998   5.739   4.570   0.306
  138ACOH    C2 9999   5.747   4.520   0.431
  138ACOH    O110000   5.795   4.413   0.464
  138ACOH    C110001   5.686   4.612   0.530
  138ACOH    H110002   5.762   4.646   0.599
  138ACOH    H210003   5.609   4.560   0.585
  138ACOH    H310004   5.642   4.698   0.480
  139ACOH    H410005   7.397   4.492   4.563
  139ACOH    O210006   7.447   4.464   4.484
  139ACOH    C210007   7.556   4.542   4.480
  139ACOH    O110008   7.600   4.607   4.573
  139ACOH    C110009   7.634   4.516   4.357
  139ACOH    H110010   7.580   4.558   4.272
  139ACOH    H210011   7.645   4.409   4.342
  139ACOH    H310012   7.732   4.562   4.362
  140ACOH    H410013   4.920   2.092   0.115
  140ACOH    O210014   5.014   2.123   0.122
  140ACOH    C210015   5.089   2.013   0.143
  140ACOH    O110016   5.051   1.898   0.147
  140ACOH    C110017   5.233   2.047   0.159
  140ACOH    H110018   5.271   2.003   0.251
  140ACOH    H210019   5.246   2.155   0.163
  140ACOH    H310020   5.288   2.008   0.074
  141ACOH    H410021   7.181   2.683   0.408
  141ACOH    O210022   7.093   2.697   0.454
  141ACOH    C210023   7.114   2.682   0.585
  141ACOH    O110024   7.208   2.626   0.640
  141ACOH    C110025   6.995   2.727   0.661
  141ACOH    H110026   7.007   2.709   0.768
  141ACOH    H210027   6.907   2.673   0.626
  141ACOH    H310028   6.980   2.833   0.644
  142ACOH    H410029   5.203   1.643   4.217
  142ACOH    O210030   5.167   1.701   4.144
  142ACOH    C210031   5.255   1.801   4.124
  142ACOH    O110032   5.362   1.816   4.181
  142ACOH    C110033   5.212   1.887   4.012
  142ACOH    H110034   5.109   1.865   3.983
  142ACOH    H210035   5.277   1.870   3.926
  142ACOH    H310036   5.219   1.991   4.041
  143ACOH    H410037   1.259   2.285   4.476
  143ACOH    O210038   1.312   2.231   4.537
  143ACOH    C210039   1.227   2.166   4.618
  143ACOH    O110040   1.106   2.169   4.613
  143ACOH    C110041   1.300   2.078   4.713
  143ACOH    H110042   1.360   2.007   4.658
  143ACOH    H210043   1.230   2.025   4.777
  143ACOH    H310044   1.365   2.139   4.775
  144ACOH    H410045   3.410   5.757   3.582
  144ACOH    O210046   3.379   5.714   3.666
  144ACOH    C210047   3.293   5.616   3.628
  144ACOH    O110048   3.239   5.606   3.520
  144ACOH    C110049   3.259   5.529   3.743
  144ACOH    H110050   3.348   5.480   3.780
  144ACOH    H210051   3.186   5.453   3.714
  144ACOH    H310052   3.215   5.589   3.823
  145ACOH    H410053   6.566   6.991   4.061
  145ACOH    O210054   6.616   6.907   4.079
  145ACOH    C210055   6.525   6.821   4.129
  145ACOH    O110056   6.411   6.848   4.164
  145ACOH    C110057   6.585   6.688   4.155
  145ACOH    H110058   6.682   6.679   4.108
  145ACOH    H210059   6.519   6.611   4.115
  145ACOH    H310060   6.596   6.673   4.262
  146ACOH    H410061   4.673   4.710   2.177
  146ACOH    O210062   4.772   4.724   2.192
  146ACOH    C210063   4.817   4.797   2.088
  146ACOH    O110064   4.753   4.838   1.993
  146ACOH    C110065   4.962   4.823   2.102
  146ACOH    H110066   5.016   4.730   2.093
  146ACOH    H210067   4.983   4.867   2.200
  146ACOH    H310068   4.996   4.892   2.025
  147ACOH    H410069   7.314   2.665   2.620
  147ACOH    O210070   7.242   2.668   2.552
  147ACOH    C210071   7.262   2.567   2.466
  147ACOH    O110072   7.341   2.475   2.479
  147ACOH    C110073   7.162   2.571   2.357
  147ACOH    H110074   7.185   2.655   2.292
  147ACOH    H210075   7.063   2.584   2.399
  147ACOH    H310076   7.165   2.479   2.299
  148ACOH    H410077   4.227   3.593   3.213
  148ACOH    O210078   4.257   3.687   3.215
  148ACOH    C210079   4.169   3.754   3.291
  148ACOH    O110080   4.059   3.715   3.325
  148ACOH    C110081   4.216   3.893   3.317
  148ACOH    H110082   4.142   3.950   3.371
  148ACOH    H210083   4.236   3.943   3.222
  148ACOH    H310084   4.308   3.889   3.375
  149ACOH    H410085   1.305   5.341   0.208
  149ACOH    O210086   1.262   5.428   0.223
  149ACOH    C210087   1.129   5.413   0.202
  149ACOH    O110088   1.073   5.317   0.153
  149ACOH    C110089   1.059   5.539   0.234
  149ACOH    H110090   1.101   5.621   0.177
  149ACOH    H210091   1.070   5.561   0.340
  149ACOH    H310092   0.953   5.532   0.211
  150ACOH    H410093   7.206   2.432   3.079
  150ACOH    O210094   7.242   2.506   3.133
  150ACOH    C210095   7.159   2.524   3.238
  150ACOH    O110096   7.061   2.457   3.263
  150ACOH    C110097   7.209   2.630   3.329
  150ACOH    H110098   7.249   2.584   3.419
  150ACOH    H210099   7.127   2.696   3.357
  150ACOH    H310100   7.287   2.689   3.281
  151ACOH    H410101   4.925   1.080   0.634
  151ACOH    O210102   4.866   1.097   0.712
  151ACOH    C210103   4.853   0.985   0.786
  151ACOH    O110104   4.796   0.981   0.893
  151ACOH    C110105   4.921   0.864   0.732
  151ACOH    H110106   4.932   0.870   0.624
  151ACOH    H210107   4.864   0.775   0.756
  151ACOH    H310108   5.020   0.856   0.776
  152ACOH    H410109   8.000   6.077   0.783
  152ACOH    O210110   7.988   6.059   0.686
  152ACOH    C210111   8.071   6.144   0.621
  152ACOH    O110112   8.165   6.204   0.670
  152ACOH    C110113   8.045   6.145   0.475
  152ACOH    H110114   7.954   6.090   0.452
  152ACOH    H210115   8.128   6.099   0.423
  152ACOH    H310116   8.034   6.248   0.440
  153ACOH    H410117   1.141   3.605   4.361
  153ACOH    O210118   1.054   3.652   4.375
  153ACOH    C210119   1.085   3.775   4.420
  153ACOH    O110120   1.196   3.819   4.444
  153ACOH    C110121   0.962   3.857   4.435
  153ACOH    H110122   0.913   3.868   4.339
  153ACOH    H210123   0.986   3.956   4.474
  153ACOH    H310124   0.894   3.808   4.505
  154ACOH    H410125   8.091   5.354   1.672
  154ACOH    O210126   8.023   5.401   1.616
  154ACOH    C210127   7.976   5.310   1.529
  154ACOH    O110128   7.973   5.190   1.546
  154ACOH    C110129   7.899   5.374   1.420
  154ACOH    H110130   7.927   5.479   1.412
  154ACOH    H210131   7.793   5.367   1.442
  154ACOH    H310132   7.919   5.325   1.325
  155ACOH    H410133   5.094   8.802   4.491
  155ACOH    O210134   5.073   8.742   4.568
  155ACOH    C210135   5.091   8.616   4.526
  155ACOH    O110136   5.109   8.577   4.412
  155ACOH    C110137   5.061   8.519   4.635
  155ACOH    H110138   5.127   8.433   4.627
  155ACOH    H210139   4.958   8.486   4.626
  155ACOH    H310140   5.076   8.566   4.731
  156ACOH    H410141   5.392   9.622   0.919
  156ACOH    O210142   5.462   9.651   0.858
  156ACOH    C210143   5.571   9.680   0.931
  156ACOH    O110144   5.583   9.671   1.052
  156ACOH    C110145   5.683   9.725   0.844
  156ACOH    H110146   5.773   9.671   0.870
  156ACOH    H210147   5.699   9.831   0.859
  156ACOH    H310148   5.659   9.707   0.740
  157ACOH    H410149   2.431   7.368   4.391
  157ACOH    O210150   2.475   7.368   4.304
  157ACOH    C210151   2.595   7.426   4.322
  157ACOH    O110152   2.629   7.492   4.418
  157ACOH    C110153   2.676   7.414   4.199
  157ACOH    H110154   2.700   7.309   4.181
  157ACOH    H210155   2.770   7.469   4.210
  157ACOH    H310156   2.622   7.453   4.114
  158ACOH    H410157   5.058   3.864   3.557
  158ACOH    O210158   5.051   3.944   3.617
  158ACOH    C210159   4.923   3.985   3.616
  158ACOH    O110160   4.833   3.942   3.546
  158ACOH    C110161   4.902   4.097   3.710
  158ACOH    H110162   4.826   4.069   3.784
  158ACOH    H210163   4.867   4.184   3.656
  158ACOH    H310164   4.994   4.122   3.762
  159ACOH    H410165   4.839   2.158   2.238
  159ACOH    O210166   4.895   2.150   2.156
  159ACOH    C210167   5.016   2.200   2.188
  159ACOH    O110168   5.061   2.213   2.300
  159ACOH    C110169   5.099   2.217   2.066
  159ACOH    H110170   5.201   2.244   2.093
  159ACOH    H210171   5.057   2.295   2.005
  159ACOH    H310172   5.101   2.124   2.009
  160ACOH    H410173   7.631   2.904   3.161
  160ACOH    O210174   7.589   2.992   3.183
  160ACOH    C210175   7.629   3.023   3.307
  160ACOH    O110176   7.691   2.951   3.384
  160ACOH    C110177   7.579   3.157   3.347
  160ACOH    H110178   7.504   3.145   3.425
  160ACOH    H210179   7.535   3.208   3.263
  160ACOH    H310180   7.661   3.216   3.386
  161ACOH    H410181   2.178   1.775   2.280
  161ACOH    O210182   2.152   1.762   2.185
  161ACOH    C210183   2.243   1.824   2.108
  161ACOH    O110184   2.331   1.901   2.144
  161ACOH    C110185   2.219   1.791   1.965
  161ACOH    H110186   2.120   1.826   1.936
  161ACOH    H210187   2.223   1.683   1.951
  161ACOH    H310188   2.293   1.837   1.900
  162ACOH    H410189   3.124   1.516   2.825
  162ACOH    O210190   3.119   1.568   2.742
  162ACOH    C210191   3.008   1.643   2.746
  162ACOH    O110192   2.924   1.643   2.834
  162ACOH    C110193   2.991   1.725   2.624
  162ACOH    H110194   2.976   1.829   2.651
  162ACOH    H210195   2.906   1.689   2.567
  162ACOH    H310196   3.081   1.718   2.562
  163ACOH    H410197   5.845   6.549   3.545
  163ACOH    O210198   5.882   6.523   3.633
  163ACOH    C210199   5.883   6.632   3.712
  163ACOH    O110200   5.860   6.747   3.680
  163ACOH    C110201   5.932   6.594   3.846
  163ACOH    H110202   6.029   6.546   3.837
  163ACOH    H210203   5.862   6.525   3.892
  163ACOH    H310204   5.943   6.681   3.911
  164ACOH    H410205   8.328   7.968   1.364
  164ACOH    O210206   8.314   8.060   1.398
  164ACOH    C210207   8.229   8.050   1.502
  164ACOH    O110208   8.200   7.948   1.563
  164ACOH    C110209   8.181   8.184   1.543
  164ACOH    H110210   8.128   8.230   1.460
  164ACOH    H210211   8.266   8.246   1.569
  164ACOH    H310212   8.114   8.177   1.628
  165ACOH    H410213   7.387   7.091   4.377
  165ACOH    O210214   7.399   7.119   4.472
  165ACOH    C210215   7.293   7.194   4.506
  165ACOH    O110216   7.208   7.237   4.431
  165ACOH    C110217   7.301   7.234   4.649
  165ACOH    H110218   7.284   7.147   4.712
  165ACOH    H210219   7.226   7.310   4.672
  165ACOH    H310220   7.399   7.275   4.670
  166ACOH    H410221   5.400   3.672   1.925
  166ACOH    O210222   5.460   3.752   1.934
  166ACOH    C210223   5.465   3.784   2.064
  166ACOH    O110224   5.426   3.717   2.158
  166ACOH    C110225   5.537   3.912   2.083
  166ACOH    H110226   5.637   3.905   2.040
  166ACOH    H210227   5.546   3.937   2.189
  166ACOH    H310228   5.483   3.992   2.033
  167ACOH    H410229   2.380   8.042   4.122
  167ACOH    O210230   2.397   7.996   4.209
  167ACOH    C210231   2.445   7.874   4.180
  167ACOH    O110232   2.461   7.825   4.069
  167ACOH    C110233   2.480   7.802   4.304
  167ACOH    H110234   2.529   7.707   4.281
  167ACOH    H210235   2.389   7.782   4.360
  167ACOH    H310236   2.547   7.863   4.364
  168ACOH    H410237   4.998   6.102   1.762
  168ACOH    O210238   5.015   6.009   1.729
  168ACOH    C210239   4.912   5.934   1.775
  168ACOH    O110240   4.809   5.974   1.825
  168ACOH    C110241   4.938   5.791   1.747
  168ACOH    H110242   4.952   5.776   1.641
  168ACOH    H210243   4.855   5.729   1.780
  168ACOH    H310244   5.028   5.759   1.799
  169ACOH    H410245   4.284   6.221   2.946
  169ACOH    O210246   4.323   6.266   3.026
  169ACOH    C210247   4.418   6.349   2.981
  169ACOH    O110248   4.458   6.360   2.867
  169ACOH    C110249   4.475   6.427   3.094
  169ACOH    H110250   4.563   6.483   3.062
  169ACOH    H210251   4.504   6.359   3.173
  169ACOH    H310252   4.400   6.495   3.131
  170ACOH    H410253   0.241   0.043   0.490
  170ACOH    O210254   0.155   0.016   0.449
  170ACOH    C210255   0.105   9.915   0.522
  170ACOH    O110256   0.150   9.868   0.625
  170ACOH    C110257   9.977   9.865   0.465
  170ACOH    H110258   9.954   9.916   0.372
  170ACOH    H210259   9.896   9.882   0.535
  170ACOH    H310260   9.984   9.759   0.445
  171ACOH    H410261   6.630   4.369   0.544
  171ACOH    O210262   6.655   4.429   0.619
  171ACOH    C210263   6.604   4.550   0.591
  171ACOH    O110264   6.538   4.582   0.494
  171ACOH    C110265   6.637   4.646   0.699
  171ACOH    H110266   6.590   4.614   0.791
  171ACOH    H210267   6.603   4.746   0.673
  171ACOH    H310268   6.745   4.648   0.713
  172ACOH    H410269   5.527   1.518   4.660
  172ACOH    O210270   5.513   1.612   4.638
  172ACOH    C210271   5.384   1.624   4.602
  172ACOH    O110272   5.302   1.534   4.598
  172ACOH    C110273   5.352   1.763   4.561
  172ACOH    H110274   5.415   1.791   4.478
  172ACOH    H210275   5.370   1.830   4.644
  172ACOH    H310276   5.248   1.771   4.531
  173ACOH    H410277   1.748   9.839   2.793
  173ACOH    O210278   1.780   9.763   2.738
  173ACOH    C210279   1.822   9.815   2.621
  173ACOH    O110280   1.821   9.932   2.587
  173ACOH    C110281   1.869   9.708   2.529
  173ACOH    H110282   1.873   9.612   2.579
  173ACOH    H210283   1.968   9.732   2.491
  173ACOH    H310284   1.800   9.700   2.445
  174ACOH    H410285   5.288   6.512   2.425
  174ACOH    O210286   5.268   6.439   2.360
  174ACOH    C210287   5.360   6.450   2.262
  174ACOH    O110288   5.462   6.518   2.264
  174ACOH    C110289   5.325   6.360   2.150
  174ACOH    H110290   5.320   6.258   2.187
  174ACOH    H210291   5.399   6.366   2.071
  174ACOH    H310292   5.228   6.387   2.110
  175ACOH    H410293   7.300   2.108   1.419
  175ACOH    O210294   7.210   2.149   1.431
  175ACOH    C210295   7.221   2.243   1.526
  175ACOH    O110296   7.320   2.270   1.591
  175ACOH    C110297   7.091   2.311   1.545
  175ACOH    H110298   7.016   2.238   1.574
  175ACOH    H210299   7.062   2.358   1.452
  175ACOH    H310300   7.099   2.387   1.623
  176ACOH    H410301   0.635   0.771   4.646
  176ACOH    O210302   0.732   0.776   4.652
  176ACOH    C210303   0.781   0.783   4.527
  176ACOH    O110304   0.715   0.795   4.425
  176ACOH    C110305   0.929   0.786   4.528
  176ACOH    H110306   0.969   0.792   4.427
  176ACOH    H210307   0.966   0.695   4.575
  176ACOH    H310308   0.963   0.871   4.586
  177ACOH    H410309   7.743   7.729   1.474
  177ACOH    O210310   7.769   7.799   1.408
  177ACOH    C210311   7.893   7.766   1.366
  177ACOH    O110312   7.950   7.660   1.385
  177ACOH    C110313   7.952   7.875   1.285
  177ACOH    H110314   8.056   7.852   1.259
  177ACOH    H210315   7.950   7.968   1.341
  177ACOH    H310316   7.895   7.887   1.194
  178ACOH    H410317   3.626   4.877   2.838
  178ACOH    O210318   3.649   4.973   2.848
  178ACOH    C210319   3.765   4.990   2.782
  178ACOH    O110320   3.802   4.925   2.686
  178ACOH    C110321   3.832   5.115   2.825
  178ACOH    H110322   3.916   5.138   2.760
  178ACOH    H210323   3.867   5.104   2.927
  178ACOH    H310324   3.761   5.198   2.821
  179ACOH    H410325   1.939   0.837   2.079
  179ACOH    O210326   2.015   0.787   2.118
  179ACOH    C210327   1.962   0.677   2.175
  179ACOH    O110328   1.844   0.646   2.178
  179ACOH    C110329   2.064   0.599   2.250
  179ACOH    H110330   2.104   0.661   2.329
  179ACOH    H210331   2.144   0.572   2.183
  179ACOH    H310332   2.021   0.508   2.292
  180ACOH    H410333   4.711   4.266   2.583
  180ACOH    O210334   4.674   4.351   2.622
  180ACOH    C210335   4.671   4.441   2.523
  180ACOH    O110336   4.725   4.434   2.415
  180ACOH    C110337   4.600   4.565   2.564
  180ACOH    H110338   4.519   4.585   2.495
  180ACOH    H210339   4.669   4.648   2.563
  180ACOH    H310340   4.559   4.554   2.664
  181ACOH    H410341   7.925   3.854   2.072
  181ACOH    O210342   7.890   3.879   1.982
  181ACOH    C210343   7.894   4.014   1.976
  181ACOH    O110344   7.953   4.088   2.053
  181ACOH    C110345   7.822   4.063   1.857
  181ACOH    H110346   7.862   4.016   1.768
  181ACOH    H210347   7.834   4.171   1.847
  181ACOH    H310348   7.716   4.040   1.865
  182ACOH    H410349   0.816   4.327   2.817
  182ACOH    O210350   0.864   4.290   2.896
  182ACOH    C210351   0.773   4.273   2.994
  182ACOH    O110352   0.653   4.295   2.989
  182ACOH    C110353   0.840   4.223   3.116
  182ACOH    H110354   0.914   4.295   3.150
  182ACOH    H210355   0.890   4.129   3.094
  182ACOH    H310356   0.768   4.206   3.196
  183ACOH    H410357   8.413   8.151   3.678
  183ACOH    O210358   8.473   8.167   3.756
  183ACOH    C210359   8.600   8.160   3.710
  183ACOH    O110360   8.635   8.177   3.595
  183ACOH    C110361   8.699   8.152   3.819
  183ACOH    H110362   8.650   8.130   3.914
  183ACOH    H210363   8.751   8.247   3.829
  183ACOH    H310364   8.771   8.074   3.799
  184ACOH    H410365   5.707   0.092   0.618
  184ACOH    O210366   5.653   0.008   0.613
  184ACOH    C210367   5.533   0.037   0.664
  184ACOH    O110368   5.503   0.139   0.725
  184ACOH    C110369   5.438   9.925   0.649
  184ACOH    H110370   5.482   9.845   0.591
  184ACOH    H210371   5.348   9.960   0.598
  184ACOH    H310372   5.409   9.887   0.746
  185ACOH    H410373   4.406   5.487   0.638
  185ACOH    O210374   4.457   5.570   0.617
  185ACOH    C210375   4.576   5.559   0.678
  185ACOH    O110376   4.617   5.463   0.741
  185ACOH    C110377   4.657   5.682   0.662
  185ACOH    H110378   4.604   5.755   0.603
  185ACOH    H210379   4.751   5.657   0.613
  185ACOH    H310380   4.678   5.723   0.760
  186ACOH    H410381   5.135   6.596   3.580
  186ACOH    O210382   5.058   6.578   3.640
  186ACOH    C210383   4.952   6.643   3.589
  186ACOH    O110384   4.931   6.668   3.471
  186ACOH    C110385   4.843   6.653   3.689
  186ACOH    H110386   4.807   6.756   3.694
  186ACOH    H210387   4.880   6.625   3.788
  186ACOH    H310388   4.761   6.588   3.662
  187ACOH    H410389   6.485   7.729   1.692
  187ACOH    O210390   6.468   7.672   1.612
  187ACOH    C210391   6.570   7.586   1.603
  187ACOH    O110392   6.682   7.603   1.648
  187ACOH    C110393   6.541   7.475   1.509
  187ACOH    H110394   6.603   7.486   1.420
  187ACOH    H210395   6.437   7.476   1.479
  187ACOH    H310396   6.564   7.380   1.556
  188ACOH    H410397   7.137   4.459   0.429
  188ACOH    O210398   7.110   4.503   0.515
  188ACOH    C210399   7.033   4.608   0.481
  188ACOH    O110400   6.973   4.625   0.377
  188ACOH    C110401   7.016   4.698   0.598
  188ACOH    H110402   6.942   4.775   0.577
  188ACOH    H210403   7.111   4.746   0.620
  188ACOH    H310404   6.984   4.640   0.684
  189ACOH    H410405   1.969   9.612   1.936
  189ACOH    O210406   2.046   9.549   1.951
  189ACOH    C210407   2.062   9.481   1.836
  189ACOH    O110408   1.990   9.486   1.737
  189ACOH    C110409   2.180   9.392   1.842
  189ACOH    H110410   2.252   9.422   1.767
  189ACOH    H210411   2.150   9.289   1.823
  189ACOH    H310412   2.227   9.396   1.940
  190ACOH    H410413   7.675   5.264   0.804
  190ACOH    O210414   7.613   5.298   0.733
  190ACOH    C210415   7.503   5.220   0.738
  190ACOH    O110416   7.481   5.127   0.814
  190ACOH    C110417   7.406   5.263   0.635
  190ACOH    H110418   7.378   5.367   0.653
  190ACOH    H210419   7.317   5.201   0.637
  190ACOH    H310420   7.452   5.256   0.537
  191ACOH    H410421   6.229   4.246   0.079
  191ACOH    O210422   6.218   4.330   0.130
  191ACOH    C210423   6.284   4.316   0.246
  191ACOH    O110424   6.372   4.235   0.269
  191ACOH    C110425   6.250   4.425   0.339
  191ACOH    H110426   6.217   4.384   0.434
  191ACOH    H210427   6.171   4.488   0.299
  191ACOH    H310428   6.338   4.486   0.357
  192ACOH    H410429   5.918   4.182   0.077
  192ACOH    O210430   5.951   4.239   0.001
  192ACOH    C210431   5.937   4.367   0.042
  192ACOH    O110432   5.868   4.407   0.134
  192ACOH    C110433   6.001   4.461   5.581
  192ACOH    H110434   5.924   4.518   5.531
  192ACOH    H210435   6.059   4.407   5.507
  192ACOH    H310436   6.066   4.528   0.001
  193ACOH    H410437   6.171   7.676   1.778
  193ACOH    O210438   6.226   7.595   1.799
  193ACOH    C210439   6.214   7.513   1.693
  193ACOH    O110440   6.165   7.539   1.584
  193ACOH    C110441   6.276   7.382   1.722
  193ACOH    H110442   6.230   7.341   1.812
  193ACOH    H210443   6.382   7.395   1.740
  193ACOH    H310444   6.261   7.313   1.640
  194ACOH    H410445   6.598   3.906   0.278
  194ACOH    O210446   6.638   3.853   0.352
  194ACOH    C210447   6.761   3.814   0.311
  194ACOH    O110448   6.814   3.839   0.204
  194ACOH    C110449   6.830   3.738   0.417
  194ACOH    H110450   6.765   3.722   0.502
  194ACOH    H210451   6.917   3.793   0.450
  194ACOH    H310452   6.861   3.641   0.378
  195ACOH    H410453   1.140   6.868   4.020
  195ACOH    O210454   1.151   6.911   4.109
  195ACOH    C210455   1.113   7.040   4.093
  195ACOH    O110456   1.058   7.087   3.996
  195ACOH    C110457   1.139   7.118   4.216
  195ACOH    H110458   1.246   7.127   4.232
  195ACOH    H210459   1.095   7.068   4.302
  195ACOH    H310460   1.097   7.218   4.208
  196ACOH    H410461   4.774   7.506   4.474
  196ACOH    O210462   4.807   7.425   4.523
  196ACOH    C210463   4.706   7.336   4.526
  196ACOH    O110464   4.602   7.341   4.464
  196ACOH    C110465   4.748   7.217   4.604
  196ACOH    H110466   4.844   7.181   4.568
  196ACOH    H210467   4.675   7.138   4.595
  196ACOH    H310468   4.758   7.245   4.709
  197ACOH    H410469   7.062   0.716   1.385
  197ACOH    O210470   7.152   0.680   1.409
  197ACOH    C210471   7.222   0.781   1.464
  197ACOH    O110472   7.200   0.899   1.448
  197ACOH    C110473   7.353   0.733   1.513
  197ACOH    H110474   7.352   0.625   1.529
  197ACOH    H210475   7.377   0.782   1.607
  197ACOH    H310476   7.431   0.757   1.441
  198ACOH    H410477   3.146   2.381   3.879
  198ACOH    O210478   3.048   2.383   3.866
  198ACOH    C210479   2.998   2.280   3.936
  198ACOH    O110480   3.059   2.209   4.014
  198ACOH    C110481   2.853   2.261   3.910
  198ACOH    H110482   2.817   2.336   3.840
  198ACOH    H210483   2.797   2.270   4.003
  198ACOH    H310484   2.836   2.163   3.868
  199ACOH    H410485   4.904   8.708   1.128
  199ACOH    O210486   4.884   8.735   1.034
  199ACOH    C210487   4.820   8.631   0.977
  199ACOH    O110488   4.768   8.539   1.036
  199ACOH    C110489   4.802   8.655   0.831
  199ACOH    H110490   4.899   8.652   0.782
  199ACOH    H210491   4.757   8.752   0.815
  199ACOH    H310492   4.739   8.578   0.788
  200ACOH    H410493   4.827   0.012   0.391
  200ACOH    O210494   4.806   9.957   0.310
  200ACOH    C210495   4.812   0.041   0.205
  200ACOH    O110496   4.865   0.151   0.204
  200ACOH    C110497   4.753   9.982   0.083
  200ACOH    H110498   4.722   9.879   0.099
  200ACOH    H210499   4.825   9.985   0.001
  200ACOH    H310500   4.665   0.039   0.054
  201ACOH    H410501   7.834   8.648   0.662
  201ACOH    O210502   7.835   8.587   0.583
  201ACOH    C210503   7.827   8.463   0.634
  201ACOH    O110504   7.815   8.432   0.751
  201ACOH    C110505   7.832   8.362   0.525
  201ACOH    H110506   7.917   8.381   0.461
  201ACOH    H210507   7.740   8.368   0.467
  201ACOH    H310508   7.841   8.262   0.567
  202ACOH    H410509   2.684   2.157   4.419
  202ACOH    O210510   2.604   2.126   4.472
  202ACOH    C210511   2.632   2.001   4.511
  202ACOH    O110512   2.739   1.943   4.500
  202ACOH    C110513   2.515   1.937   4.576
  202ACOH    H110514   2.543   1.901   4.674
  202ACOH    H210515   2.481   1.854   4.515
  202ACOH    H310516   2.434   2.009   4.586
  203ACOH    H410517   6.192   8.897   4.627
  203ACOH    O210518   6.278   8.847   4.625
  203ACOH    C210519   6.265   8.741   4.544
  203ACOH    O110520   6.166   8.706   4.483
  203ACOH    C110521   6.393   8.667   4.535
  203ACOH    H110522   6.385   8.582   4.469
  203ACOH    H210523   6.422   8.633   4.634
  203ACOH    H310524   6.471   8.734   4.498
  204ACOH    H410525   5.078   5.498   1.703
  204ACOH    O210526   5.161   5.551   1.722
  204ACOH    C210527   5.205   5.597   1.603
  204ACOH    O110528   5.170   5.560   1.492
  204ACOH    C110529   5.316   5.694   1.620
  204ACOH    H110530   5.407   5.653   1.577
  204ACOH    H210531   5.332   5.715   1.725
  204ACOH    H310532   5.292   5.786   1.568
  205ACOH    H410533   9.480   1.902   2.070
  205ACOH    O210534   9.469   1.804   2.054
  205ACOH    C210535   9.504   1.778   1.927
  205ACOH    O110536   9.572   1.848   1.854
  205ACOH    C110537   9.463   1.641   1.889
  205ACOH    H110538   9.498   1.614   1.790
  205ACOH    H210539   9.355   1.633   1.892
  205ACOH    H310540   9.505   1.570   1.961
  206ACOH    H410541   0.212   0.238   0.166
  206ACOH    O210542   0.160   0.152   0.151
  206ACOH    C210543   0.252   0.056   0.134
  206ACOH    O110544   0.373   0.067   0.137
  206ACOH    C110545   0.185   9.927   0.108
  206ACOH    H110546   0.257   9.848   0.090
  206ACOH    H210547   0.119   9.936   0.023
  206ACOH    H310548   0.126   9.900   0.196
  207ACOH    H410549   2.581   4.729   3.918
  207ACOH    O210550   2.658   4.768   3.966
  207ACOH    C210551   2.618   4.792   4.092
  207ACOH    O110552   2.504   4.780   4.136
  207ACOH    C110553   2.731   4.840   4.175
  207ACOH    H110554   2.698   4.865   4.276
  207ACOH    H210555   2.773   4.929   4.130
  207ACOH    H310556   2.808   4.764   4.181
  208ACOH    H410557   7.964   9.029   2.773
  208ACOH    O210558   7.961   9.000   2.869
  208ACOH    C210559   7.927   8.870   2.866
  208ACOH    O110560   7.959   8.793   2.777
  208ACOH    C110561   7.884   8.822   2.999
  208ACOH    H110562   7.852   8.905   3.061
  208ACOH    H210563   7.966   8.770   3.048
  208ACOH    H310564   7.801   8.752   2.988
  209ACOH    H410565   5.685   7.315   1.577
  209ACOH    O210566   5.678   7.216   1.593
  209ACOH    C210567   5.793   7.178   1.650
  209ACOH    O110568   5.888   7.248   1.683
  209ACOH    C110569   5.796   7.031   1.674
  209ACOH    H110570   5.704   6.985   1.638
  209ACOH    H210571   5.805   7.011   1.780
  209ACOH    H310572   5.880   6.987   1.621
  210ACOH    H410573   8.539   5.817   4.101
  210ACOH    O210574   8.598   5.769   4.037
  210ACOH    C210575   8.517   5.692   3.961
  210ACOH    O110576   8.396   5.678   3.974
  210ACOH    C110577   8.592   5.624   3.854
  210ACOH    H110578   8.561   5.520   3.847
  210ACOH    H210579   8.699   5.626   3.873
  210ACOH    H310580   8.573   5.672   3.758
  211ACOH    H410581   2.236   2.092   3.663
  211ACOH    O210582   2.188   2.121   3.745
  211ACOH    C210583   2.235   2.043   3.845
  211ACOH    O110584   2.311   1.949   3.835
  211ACOH    C110585   2.171   2.080   3.973
  211ACOH    H110586   2.214   2.025   4.056
  211ACOH    H210587   2.065   2.059   3.968
  211ACOH    H310588   2.185   2.187   3.991
  212ACOH    H410589   2.081   0.779   4.114
  212ACOH    O210590   2.018   0.710   4.079
  212ACOH    C210591   1.960   0.765   3.970
  212ACOH    O110592   1.964   0.882   3.937
  212ACOH    C110593   1.873   0.667   3.900
  212ACOH    H110594   1.887   0.567   3.941
  212ACOH    H210595   1.897   0.664   3.794
  212ACOH    H310596   1.769   0.695   3.912
  213ACOH    H410597   6.467   1.746   3.021
  213ACOH    O210598   6.372   1.745   2.991
  213ACOH    C210599   6.306   1.666   3.077
  213ACOH    O110600   6.341   1.634   3.189
  213ACOH    C110601   6.169   1.640   3.026
  213ACOH    H110602   6.175   1.579   2.937
  213ACOH    H210603   6.121   1.734   3.001
  213ACOH    H310604   6.109   1.588   3.100
  214ACOH    H410605   4.820   1.668   0.224
  214ACOH    O210606   4.883   1.663   0.300
  214ACOH    C210607   4.861   1.772   0.377
  214ACOH    O110608   4.786   1.865   0.354
  214ACOH    C110609   4.950   1.772   0.496
  214ACOH    H110610   5.023   1.852   0.487
  214ACOH    H210611   5.002   1.677   0.506
  214ACOH    H310612   4.891   1.789   0.586
  215ACOH    H410613   7.975   7.296   4.253
  215ACOH    O210614   7.929   7.322   4.338
  215ACOH    C210615   7.802   7.280   4.330
  215ACOH    O110616   7.749   7.223   4.237
  215ACOH    C110617   7.731   7.310   4.457
  215ACOH    H110618   7.629   7.270   4.455
  215ACOH    H210619   7.727   7.417   4.472
  215ACOH    H310620   7.785   7.264   4.540
  216ACOH    H410621   4.246   4.591   0.317
  216ACOH    O210622   4.181   4.607   0.243
  216ACOH    C210623   4.064   4.551   0.280
  216ACOH    O110624   4.033   4.516   0.393
  216ACOH    C110625   3.967   4.556   0.169
  216ACOH    H110626   3.868   4.525   0.203
  216ACOH    H210627   3.999   4.488   0.090
  216ACOH    H310628   3.961   4.657   0.130
  217ACOH    H410629   5.184   3.080   1.031
  217ACOH    O210630   5.191   3.150   1.102
  217ACOH    C210631   5.140   3.098   1.215
  217ACOH    O110632   5.098   2.984   1.232
  217ACOH    C110633   5.139   3.200   1.322
  217ACOH    H110634   5.092   3.161   1.412
  217ACOH    H210635   5.084   3.287   1.289
  217ACOH    H310636   5.241   3.229   1.345
  218ACOH    H410637   4.667   8.217   0.599
  218ACOH    O210638   4.715   8.287   0.547
  218ACOH    C210639   4.824   8.320   0.619
  218ACOH    O110640   4.834   8.305   0.739
  218ACOH    C110641   4.916   8.406   0.541
  218ACOH    H110642   4.986   8.456   0.607
  218ACOH    H210643   4.861   8.480   0.485
  218ACOH    H310644   4.972   8.344   0.472
  219ACOH    H410645   7.315   6.769   2.101
  219ACOH    O210646   7.262   6.689   2.130
  219ACOH    C210647   7.350   6.589   2.151
  219ACOH    O110648   7.472   6.599   2.157
  219ACOH    C110649   7.280   6.464   2.187
  219ACOH    H110650   7.207   6.483   2.265
  219ACOH    H210651   7.350   6.388   2.223
  219ACOH    H310652   7.229   6.425   2.099
  220ACOH    H410653   4.638   3.793   3.850
  220ACOH    O210654   4.734   3.818   3.857
  220ACOH    C210655   4.805   3.709   3.824
  220ACOH    O110656   4.763   3.604   3.779
  220ACOH    C110657   4.950   3.731   3.848
  220ACOH    H110658   4.968   3.832   3.886
  220ACOH    H210659   5.004   3.719   3.755
  220ACOH    H310660   4.986   3.659   3.921
  221ACOH    H410661   7.127   1.220   1.655
  221ACOH    O210662   7.042   1.171   1.674
  221ACOH    C210663   6.991   1.140   1.553
  221ACOH    O110664   7.019   1.191   1.446
  221ACOH    C110665   6.875   1.049   1.570
  221ACOH    H110666   6.911   0.950   1.598
  221ACOH    H210667   6.817   1.041   1.479
  221ACOH    H310668   6.810   1.085   1.649
  222ACOH    H410669   6.848   2.149   3.251
  222ACOH    O210670   6.773   2.122   3.190
  222ACOH    C210671   6.660   2.124   3.264
  222ACOH    O110672   6.650   2.145   3.383
  222ACOH    C110673   6.543   2.093   3.179
  222ACOH    H110674   6.534   2.169   3.101
  222ACOH    H210675   6.452   2.092   3.238
  222ACOH    H310676   6.556   1.996   3.132
  223ACOH    H410677   7.943   5.942   1.115
  223ACOH    O210678   7.900   6.027   1.143
  223ACOH    C210679   7.942   6.122   1.057
  223ACOH    O110680   7.991   6.103   0.948
  223ACOH    C110681   7.901   6.257   1.102
  223ACOH    H110682   7.988   6.323   1.103
  223ACOH    H210683   7.858   6.254   1.201
  223ACOH    H310684   7.828   6.298   1.033
  224ACOH    H410685   4.600   3.178   1.088
  224ACOH    O210686   4.501   3.164   1.086
  224ACOH    C210687   4.454   3.206   1.205
  224ACOH    O110688   4.521   3.233   1.303
  224ACOH    C110689   4.306   3.191   1.213
  224ACOH    H110690   4.282   3.107   1.277
  224ACOH    H210691   4.264   3.175   1.114
  224ACOH    H310692   4.263   3.281   1.256
  225ACOH    H410693   7.809   5.474   2.323
  225ACOH    O210694   7.786   5.397   2.383
  225ACOH    C210695   7.703   5.445   2.478
  225ACOH    O110696   7.668   5.560   2.493
  225ACOH    C110697   7.661   5.336   2.569
  225ACOH    H110698   7.749   5.294   2.617
  225ACOH    H210699   7.611   5.258   2.512
  225ACOH    H310700   7.593   5.373   2.646
  226ACOH    H410701   4.859   4.688   2.326
  226ACOH    O210702   4.920   4.681   2.403
  226ACOH    C210703   5.003   4.579   2.377
  226ACOH    O110704   5.022   4.527   2.268
  226ACOH    C110705   5.094   4.553   2.491
  226ACOH    H110706   5.056   4.600   2.581
  226ACOH    H210707   5.192   4.594   2.469
  226ACOH    H310708   5.103   4.446   2.508
  227ACOH    H410709   8.266   0.849   3.779
  227ACOH    O210710   8.176   0.840   3.736
  227ACOH    C210711   8.154   0.708   3.725
  227ACOH    O110712   8.233   0.617   3.744
  227ACOH    C110713   8.016   0.683   3.677
  227ACOH    H110714   7.946   0.732   3.743
  227ACOH    H210715   7.995   0.577   3.675
  227ACOH    H310716   8.005   0.723   3.577
  228ACOH    H410717   5.357   4.490   0.658
  228ACOH    O210718   5.397   4.550   0.727
  228ACOH    C210719   5.395   4.483   0.843
  228ACOH    O110720   5.374   4.364   0.860
  228ACOH    C110721   5.434   4.574   0.954
  228ACOH    H110722   5.362   4.654   0.962
  228ACOH    H210723   5.532   4.616   0.933
  228ACOH    H310724   5.438   4.520   1.048
  229ACOH    H410725   7.844   4.713   1.154
  229ACOH    O210726   7.865   4.683   1.247
  229ACOH    C210727   7.944   4.574   1.238
  229ACOH    O110728   8.010   4.541   1.141
  229ACOH    C110729   7.961   4.507   1.369
  229ACOH    H110730   8.064   4.517   1.402
  229ACOH    H210731   7.938   4.401   1.358
  229ACOH    H310732   7.895   4.550   1.443
  230ACOH    H410733   6.998   9.550   0.676
  230ACOH    O210734   6.940   9.601   0.611
  230ACOH    C210735   6.820   9.619   0.670
  230ACOH    O110736   6.789   9.594   0.785
  230ACOH    C110737   6.725   9.684   0.577
  230ACOH    H110738   6.768   9.694   0.478
  230ACOH    H210739   6.700   9.783   0.615
  230ACOH    H310740   6.634   9.625   0.570
  231ACOH    H410741   6.999   2.019   3.666
  231ACOH    O210742   7.063   2.046   3.737
  231ACOH    C210743   7.158   2.120   3.675
  231ACOH    O110744   7.150   2.167   3.563
  231ACOH    C110745   7.270   2.151   3.766
  231ACOH    H110746   7.257   2.103   3.863
  231ACOH    H210747   7.277   2.259   3.781
  231ACOH    H310748   7.363   2.116   3.722
  232ACOH    H410749   7.340   6.216   3.923
  232ACOH    O210750   7.337   6.294   3.985
  232ACOH    C210751   7.208   6.306   4.023
  232ACOH    O110752   7.118   6.227   4.002
  232ACOH    C110753   7.191   6.426   4.108
  232ACOH    H110754   7.091   6.431   4.149
  232ACOH    H210755   7.209   6.515   4.049
  232ACOH    H310756   7.263   6.423   4.190
  233ACOH    H410757   7.038   3.400   0.730
  233ACOH    O210758   6.965   3.352   0.779
  233ACOH    C210759   7.014   3.235   0.822
  233ACOH    O110760   7.113   3.177   0.781
  233ACOH    C110761   6.917   3.173   0.915
  233ACOH    H110762   6.944   3.070   0.937
  233ACOH    H210763   6.818   3.175   0.871
  233ACOH    H310764   6.916   3.229   1.008
  234ACOH    H410765   4.040   4.780   1.013
  234ACOH    O210766   4.128   4.751   1.047
  234ACOH    C210767   4.188   4.680   0.949
  234ACOH    O110768   4.149   4.672   0.833
  234ACOH    C110769   4.319   4.627   0.991
  234ACOH    H110770   4.327   4.522   0.963
  234ACOH    H210771   4.331   4.635   1.099
  234ACOH    H310772   4.399   4.683   0.943
  235ACOH    H410773   6.870   4.802   5.434
  235ACOH    O210774   6.876   4.782   5.529
  235ACOH    C210775   6.848   4.896   5.594
  235ACOH    O110776   6.828   5.004   5.542
  235ACOH    C110777   6.852   4.875   0.107
  235ACOH    H110778   6.777   4.802   0.135
  235ACOH    H210779   6.831   4.969   0.159
  235ACOH    H310780   6.950   4.839   0.137
  236ACOH    H410781   5.432   3.323   2.228
  236ACOH    O210782   5.451   3.238   2.181
  236ACOH    C210783   5.363   3.146   2.225
  236ACOH    O110784   5.273   3.163   2.305
  236ACOH    C110785   5.393   3.014   2.166
  236ACOH    H110786   5.496   2.987   2.187
  236ACOH    H210787   5.379   3.018   2.058
  236ACOH    H310788   5.328   2.937   2.207
  237ACOH    H410789   8.294   9.096   3.387
  237ACOH    O210790   8.274   9.184   3.345
  237ACOH    C210791   8.166   9.236   3.405
  237ACOH    O110792   8.111   9.196   3.506
  237ACOH    C110793   8.124   9.362   3.338
  237ACOH    H110794   8.019   9.355   3.310
  237ACOH    H210795   8.183   9.379   3.248
  237ACOH    H310796   8.138   9.445   3.406
  238ACOH    H410797   5.928   6.596   3.181
  238ACOH    O210798   5.835   6.570   3.152
  238ACOH    C210799   5.777   6.513   3.259
  238ACOH    O110800   5.807   6.534   3.375
  238ACOH    C110801   5.653   6.441   3.221
  238ACOH    H110802   5.567   6.495   3.259
  238ACOH    H210803   5.654   6.341   3.265
  238ACOH    H310804   5.645   6.432   3.113
  239ACOH    H410805   4.208   4.280   4.244
  239ACOH    O210806   4.266   4.199   4.245
  239ACOH    C210807   4.390   4.235   4.284
  239ACOH    O110808   4.483   4.157   4.284
  239ACOH    C110809   4.407   4.377   4.324
  239ACOH    H110810   4.387   4.442   4.239
  239ACOH    H210811   4.508   4.395   4.360
  239ACOH    H310812   4.336   4.401   4.403
  240ACOH    H410813   0.005   0.861   2.423
  240ACOH    O210814   9.921   0.815   2.395
  240ACOH    C210815   9.955   0.701   2.331
  240ACOH    O110816   0.067   0.660   2.308
  240ACOH    C110817   9.833   0.628   2.292
  240ACOH    H110818   9.857   0.536   2.239
  240ACOH    H210819   9.771   0.690   2.228
  240ACOH    H310820   9.776   0.602   2.381
  241ACOH    H410821   7.144   3.650   1.083
  241ACOH    O210822   7.089   3.727   1.117
  241ACOH    C210823   7.169   3.804   1.192
  241ACOH    O110824   7.291   3.799   1.197
  241ACOH    C110825   7.094   3.916   1.252
  241ACOH    H110826   6.987   3.902   1.240
  241ACOH    H210827   7.122   4.009   1.203
  241ACOH    H310828   7.117   3.923   1.358
  242ACOH    H410829   9.980   8.353   1.411
  242ACOH    O210830   9.942   8.338   1.320
  242ACOH    C210831   0.015   8.408   1.232
  242ACOH    O110832   0.116   8.473   1.257
  242ACOH    C110833   9.969   8.388   1.092
  242ACOH    H110834   9.953   8.484   1.044
  242ACOH    H210835   9.875   8.333   1.091
  242ACOH    H310836   0.042   8.332   1.035
  243ACOH    H410837   4.771   6.351   1.229
  243ACOH    O210838   4.724   6.436   1.205
  243ACOH    C210839   4.755   6.526   1.300
  243ACOH    O110840   4.801   6.503   1.410
  243ACOH    C110841   4.704   6.661   1.264
  243ACOH    H110842   4.782   6.735   1.278
  243ACOH    H210843   4.620   6.686   1.327
  243ACOH    H310844   4.672   6.663   1.160
  244ACOH    H410845   4.159   4.883   0.518
  244ACOH    O210846   4.090   4.953   0.495
  244ACOH    C210847   4.139   5.072   0.532
  244ACOH    O110848   4.251   5.098   0.570
  244ACOH    C110849   4.035   5.177   0.514
  244ACOH    H110850   3.950   5.154   0.578
  244ACOH    H210851   4.002   5.177   0.410
  244ACOH    H310852   4.074   5.275   0.540
  245ACOH    H410853   3.213   5.069   0.428
  245ACOH    O210854   3.126   5.048   0.386
  245ACOH    C210855   3.031   5.082   0.475
  245ACOH    O110856   3.046   5.146   0.577
  245ACOH    C110857   2.898   5.040   0.424
  245ACOH    H110858   2.880   5.084   0.326
  245ACOH    H210859   2.819   5.071   0.492
  245ACOH    H310860   2.896   4.932   0.415
  246ACOH    H410861   7.969   6.522   0.568
  246ACOH    O210862   7.894   6.456   0.566
  246ACOH    C210863   7.870   6.419   0.693
  246ACOH    O110864   7.939   6.443   0.790
  246ACOH    C110865   7.753   6.328   0.700
  246ACOH    H110866   7.787   6.227   0.725
  246ACOH    H210867   7.700   6.326   0.605
  246ACOH    H310868   7.685   6.362   0.778
  247ACOH    H410869   3.731   2.404   3.174
  247ACOH    O210870   3.749   2.456   3.091
  247ACOH    C210871   3.882   2.460   3.074
  247ACOH    O110872   3.967   2.428   3.156
  247ACOH    C110873   3.919   2.526   2.946
  247ACOH    H110874   3.967   2.621   2.966
  247ACOH    H210875   3.830   2.543   2.886
  247ACOH    H310876   3.987   2.462   2.890
  248ACOH    H410877   8.752   0.597   4.764
  248ACOH    O210878   8.675   0.656   4.758
  248ACOH    C210879   8.696   0.736   4.651
  248ACOH    O110880   8.789   0.728   4.573
  248ACOH    C110881   8.585   0.832   4.633
  248ACOH    H110882   8.624   0.933   4.628
  248ACOH    H210883   8.514   0.826   4.715
  248ACOH    H310884   8.533   0.811   4.540
  249ACOH    H410885   6.185   0.122   0.721
  249ACOH    O210886   6.250   0.142   0.648
  249ACOH    C210887   6.179   0.182   0.541
  249ACOH    O110888   6.058   0.181   0.531
  249ACOH    C110889   6.267   0.224   0.429
  249ACOH    H110890   6.243   0.325   0.400
  249ACOH    H210891   6.252   0.158   0.344
  249ACOH    H310892   6.372   0.220   0.459
  250ACOH    H410893   8.060   3.848   2.702
  250ACOH    O210894   7.993   3.855   2.775
  250ACOH    C210895   7.877   3.807   2.726
  250ACOH    O110896   7.863   3.743   2.623
  250ACOH    C110897   7.765   3.827   2.821
  250ACOH    H110898   7.797   3.889   2.905
  250ACOH    H210899   7.732   3.732   2.859
  250ACOH    H310900   7.683   3.876   2.770
  251ACOH    H410901   6.231   8.072   3.915
  251ACOH    O210902   6.162   8.021   3.966
  251ACOH    C210903   6.096   8.111   4.041
  251ACOH    O110904   6.116   8.231   4.050
  251ACOH    C110905   5.994   8.041   4.123
  251ACOH    H110906   5.949   8.108   4.195
  251ACOH    H210907   6.041   7.958   4.176
  251ACOH    H310908   5.916   8.002   4.058
  252ACOH    H410909   5.377   4.185   2.246
  252ACOH    O210910   5.425   4.266   2.213
  252ACOH    C210911   5.354   4.315   2.109
  252ACOH    O110912   5.256   4.266   2.057
  252ACOH    C110913   5.410   4.443   2.060
  252ACOH    H110914   5.505   4.465   2.110
  252ACOH    H210915   5.340   4.523   2.082
  252ACOH    H310916   5.427   4.438   1.953
  253ACOH    H410917   7.160   2.945   5.418
  253ACOH    O210918   7.116   2.905   5.494
  253ACOH    C210919   7.157   2.974   5.602
  253ACOH    O110920   7.246   3.056   5.605
  253ACOH    C110921   7.087   2.928   0.091
  253ACOH    H110922   7.128   2.977   0.179
  253ACOH    H210923   7.097   2.820   0.101
  253ACOH    H310924   6.982   2.953   0.082
  254ACOH    H410925   1.679   4.053   4.337
  254ACOH    O210926   1.727   3.966   4.327
  254ACOH    C210927   1.855   3.992   4.362
  254ACOH    O110928   1.901   4.097   4.402
  254ACOH    C110929   1.937   3.869   4.347
  254ACOH    H110930   1.895   3.789   4.408
  254ACOH    H210931   2.040   3.887   4.379
  254ACOH    H310932   1.938   3.837   4.243
  255ACOH    H410933   5.202   2.740   2.402
  255ACOH    O210934   5.260   2.706   2.477
  255ACOH    C210935   5.179   2.667   2.576
  255ACOH    O110936   5.063   2.702   2.592
  255ACOH    C110937   5.252   2.591   2.680
  255ACOH    H110938   5.204   2.495   2.696
  255ACOH    H210939   5.250   2.647   2.774
  255ACOH    H310940   5.355   2.575   2.651
  256ACOH    H410941   7.141   5.158   4.387
  256ACOH    O210942   7.090   5.225   4.333
  256ACOH    C210943   6.994   5.272   4.415
  256ACOH    O110944   6.991   5.263   4.536
  256ACOH    C110945   6.896   5.354   4.341
  256ACOH    H110946   6.795   5.323   4.367
  256ACOH    H210947   6.909   5.343   4.233
  256ACOH    H310948   6.908   5.459   4.367
  257ACOH    H410949   6.539   2.133   3.514
  257ACOH    O210950   6.481   2.134   3.595
  257ACOH    C210951   6.380   2.047   3.573
  257ACOH    O110952   6.357   1.985   3.471
  257ACOH    C110953   6.291   2.042   3.691
  257ACOH    H110954   6.344   1.992   3.772
  257ACOH    H210955   6.200   1.987   3.669
  257ACOH    H310956   6.266   2.143   3.722
  258ACOH    H410957   3.712   5.702   4.123
  258ACOH    O210958   3.794   5.745   4.159
  258ACOH    C210959   3.888   5.651   4.172
  258ACOH    O110960   3.872   5.530   4.164
  258ACOH    C110961   4.017   5.711   4.215
  258ACOH    H110962   4.089   5.634   4.240
  258ACOH    H210963   3.999   5.775   4.301
  258ACOH    H310964   4.056   5.772   4.134
  259ACOH    H410965   6.590   2.111   2.852
  259ACOH    O210966   6.605   2.209   2.856
  259ACOH    C210967   6.738   2.227   2.853
  259ACOH    O110968   6.823   2.141   2.842
  259ACOH    C110969   6.776   2.370   2.862
  259ACOH    H110970   6.832   2.399   2.773
  259ACOH    H210971   6.837   2.386   2.950
  259ACOH    H310972   6.687   2.433   2.869
  260ACOH    H410973   2.575   3.072   3.442
  260ACOH    O210974   2.647   3.126   3.399
  260ACOH    C210975   2.616   3.132   3.268
  260ACOH    O110976   2.527   3.071   3.211
  260ACOH    C110977   2.708   3.221   3.193
  260ACOH    H110978   2.757   3.165   3.114
  260ACOH    H210979   2.784   3.262   3.259
  260ACOH    H310980   2.652   3.303   3.149
  261ACOH    H410981   5.622   3.557   0.412
  261ACOH    O210982   5.641   3.465   0.446
  261ACOH    C210983   5.764   3.431   0.403
  261ACOH    O110984   5.835   3.494   0.328
  261ACOH    C110985   5.801   3.294   0.449
  261ACOH    H110986   5.807   3.228   0.363
  261ACOH    H210987   5.727   3.255   0.519
  261ACOH    H310988   5.898   3.298   0.497
  262ACOH    H410989   5.294   5.264   0.563
  262ACOH    O210990   5.292   5.361   0.583
  262ACOH    C210991   5.173   5.387   0.640
  262ACOH    O110992   5.082   5.309   0.660
  262ACOH    C110993   5.162   5.531   0.674
  262ACOH    H110994   5.253   5.584   0.649
  262ACOH    H210995   5.143   5.542   0.781
  262ACOH    H310996   5.079   5.575   0.619
  263ACOH    H410997   5.288   8.581   0.020
  263ACOH    O210998   5.334   8.545   0.097
  263ACOH    C210999   5.248   8.554   0.200
  263ACOH    O111000   5.142   8.613   0.199
  263ACOH    C111001   5.308   8.498   0.324
  263ACOH    H111002   5.328   8.578   0.395
  263ACOH    H211003   5.400   8.446   0.302
  263ACOH    H311004   5.238   8.428   0.369
  264ACOH    H411005   7.624   5.211   3.650
  264ACOH    O211006   7.558   5.137   3.658
  264ACOH    C211007   7.437   5.191   3.633
  264ACOH    O111008   7.411   5.309   3.618
  264ACOH    C111009   7.335   5.084   3.630
  264ACOH    H111010   7.360   5.010   3.555
  264ACOH    H211011   7.238   5.126   3.606
  264ACOH    H311012   7.329   5.036   3.728
  265ACOH    H411013   4.531   3.776   2.839
  265ACOH    O211014   4.536   3.829   2.923
  265ACOH    C211015   4.574   3.748   3.023
  265ACOH    O111016   4.595   3.628   3.014
  265ACOH    C111017   4.589   3.821   3.151
  265ACOH    H111018   4.516   3.783   3.223
  265ACOH    H211019   4.573   3.927   3.137
  265ACOH    H311020   4.689   3.805   3.190
  266ACOH    H411021   5.010   4.100   1.648
  266ACOH    O211022   5.103   4.063   1.653
  266ACOH    C211023   5.103   3.967   1.747
  266ACOH    O111024   5.010   3.928   1.815
  266ACOH    C111025   5.238   3.904   1.754
  266ACOH    H111026   5.267   3.870   1.655
  266ACOH    H211027   5.237   3.819   1.821
  266ACOH    H311028   5.310   3.977   1.789
  267ACOH    H411029   4.097   5.434   2.331
  267ACOH    O211030   4.168   5.435   2.260
  267ACOH    C211031   4.201   5.306   2.237
  267ACOH    O111032   4.152   5.208   2.288
  267ACOH    C111033   4.306   5.298   2.133
  267ACOH    H111034   4.330   5.195   2.111
  267ACOH    H211035   4.396   5.349   2.167
  267ACOH    H311036   4.270   5.346   2.042
  268ACOH    H411037   7.759   3.446   2.404
  268ACOH    O211038   7.677   3.390   2.414
  268ACOH    C211039   7.647   3.339   2.294
  268ACOH    O111040   7.702   3.363   2.188
  268ACOH    C111041   7.529   3.250   2.305
  268ACOH    H111042   7.500   3.211   2.208
  268ACOH    H211043   7.446   3.306   2.347
  268ACOH    H311044   7.553   3.167   2.371
  269ACOH    H411045   5.318   7.315   4.169
  269ACOH    O211046   5.346   7.222   4.145
  269ACOH    C211047   5.237   7.145   4.159
  269ACOH    O111048   5.132   7.176   4.212
  269ACOH    C111049   5.261   7.008   4.109
  269ACOH    H111050   5.363   6.997   4.073
  269ACOH    H211051   5.193   6.986   4.027
  269ACOH    H311052   5.244   6.936   4.188
  270ACOH    H411053   5.710   2.212   2.673
  270ACOH    O211054   5.731   2.231   2.769
  270ACOH    C211055   5.860   2.198   2.788
  270ACOH    O111056   5.935   2.144   2.709
  270ACOH    C111057   5.901   2.233   2.926
  270ACOH    H111058   6.005   2.205   2.943
  270ACOH    H211059   5.838   2.180   2.997
  270ACOH    H311060   5.890   2.340   2.942
  271ACOH    H411061   3.892   5.316   0.837
  271ACOH    O211062   3.830   5.376   0.786
  271ACOH    C211063   3.875   5.501   0.806
  271ACOH    O111064   3.984   5.533   0.851
  271ACOH    C111065   3.780   5.600   0.751
  271ACOH    H111066   3.685   5.593   0.805
  271ACOH    H211067   3.763   5.580   0.646
  271ACOH    H311068   3.818   5.701   0.763
  272ACOH    H411069   2.790   4.649   2.812
  272ACOH    O211070   2.881   4.640   2.851
  272ACOH    C211071   2.871   4.567   2.964
  272ACOH    O111072   2.771   4.512   3.007
  272ACOH    C111073   3.003   4.554   3.030
  272ACOH    H111074   3.044   4.653   3.050
  272ACOH    H211075   3.071   4.500   2.965
  272ACOH    H311076   2.994   4.500   3.124
  273ACOH    H411077   8.024   2.524   4.137
  273ACOH    O211078   7.970   2.576   4.204
  273ACOH    C211079   7.895   2.663   4.134
  273ACOH    O111080   7.890   2.673   4.013
  273ACOH    C111081   7.811   2.744   4.225
  273ACOH    H111082   7.875   2.799   4.293
  273ACOH    H211083   7.746   2.679   4.282
  273ACOH    H311084   7.751   2.815   4.169
  274ACOH    H411085   7.162   1.419   4.396
  274ACOH    O211086   7.117   1.439   4.311
  274ACOH    C211087   7.216   1.465   4.223
  274ACOH    O111088   7.335   1.464   4.248
  274ACOH    C111089   7.161   1.495   4.089
  274ACOH    H111090   7.093   1.580   4.095
  274ACOH    H211091   7.108   1.409   4.052
  274ACOH    H311092   7.242   1.519   4.019
  275ACOH    H411093   2.600   3.255   1.873
  275ACOH    O211094   2.531   3.184   1.862
  275ACOH    C211095   2.420   3.229   1.924
  275ACOH    O111096   2.412   3.326   1.997
  275ACOH    C111097   2.307   3.133   1.909
  275ACOH    H111098   2.215   3.188   1.889
  275ACOH    H211099   2.296   3.076   2.000
  275ACOH    H311100   2.326   3.065   1.826
  276ACOH    H411101   7.792   2.376   3.207
  276ACOH    O211102   7.726   2.422   3.266
  276ACOH    C211103   7.787   2.447   3.383
  276ACOH    O111104   7.896   2.407   3.420
  276ACOH    C111105   7.703   2.534   3.470
  276ACOH    H111106   7.689   2.487   3.566
  276ACOH    H211107   7.605   2.550   3.425
  276ACOH    H311108   7.751   2.630   3.483
  277ACOH    H411109   9.512   1.784   3.909
  277ACOH    O211110   9.510   1.863   3.848
  277ACOH    C211111   9.491   1.817   3.723
  277ACOH    O111112   9.489   1.701   3.686
  277ACOH    C111113   9.476   1.929   3.628
  277ACOH    H111114   9.557   1.926   3.556
  277ACOH    H211115   9.479   2.025   3.680
  277ACOH    H311116   9.381   1.920   3.575
  278ACOH    H411117   3.878   7.006   4.360
  278ACOH    O211118   3.892   6.954   4.279
  278ACOH    C211119   3.980   6.858   4.313
  278ACOH    O111120   4.038   6.849   4.420
  278ACOH    C111121   4.004   6.765   4.200
  278ACOH    H111122   4.038   6.822   4.114
  278ACOH    H211123   3.912   6.713   4.175
  278ACOH    H311124   4.080   6.692   4.227
  279ACOH    H411125   7.994   5.782   0.250
  279ACOH    O211126   7.904   5.790   0.209
  279ACOH    C211127   7.902   5.910   0.146
  279ACOH    O111128   7.988   5.996   0.149
  279ACOH    C111129   7.775   5.929   0.072
  279ACOH    H111130   7.720   6.013   0.114
  279ACOH    H211131   7.712   5.840   0.077
  279ACOH    H311132   7.797   5.950   5.601
  280ACOH    H411133   5.653   1.835   2.643
  280ACOH    O211134   5.576   1.884   2.683
  280ACOH    C211135   5.606   1.901   2.814
  280ACOH    O111136   5.709   1.867   2.870
  280ACOH    C111137   5.496   1.971   2.882
  280ACOH    H111138   5.519   1.986   2.988
  280ACOH    H211139   5.405   1.912   2.874
  280ACOH    H311140   5.479   2.068   2.836
  281ACOH    H411141   5.929   0.934   0.712
  281ACOH    O211142   6.008   0.968   0.661
  281ACOH    C211143   6.083   1.040   0.748
  281ACOH    O111144   6.070   1.045   0.869
  281ACOH    C111145   6.195   1.106   0.677
  281ACOH    H111146   6.155   1.180   0.607
  281ACOH    H211147   6.252   1.032   0.621
  281ACOH    H311148   6.260   1.156   0.748
  282ACOH    H411149   7.720   3.360   1.781
  282ACOH    O211150   7.738   3.434   1.845
  282ACOH    C211151   7.640   3.525   1.830
  282ACOH    O111152   7.543   3.516   1.757
  282ACOH    C111153   7.662   3.644   1.915
  282ACOH    H111154   7.672   3.732   1.852
  282ACOH    H211155   7.752   3.633   1.974
  282ACOH    H311156   7.578   3.657   1.981
  283ACOH    H411157   5.178   3.004   1.766
  283ACOH    O211158   5.267   3.019   1.808
  283ACOH    C211159   5.327   3.117   1.739
  283ACOH    O111160   5.288   3.171   1.637
  283ACOH    C111161   5.456   3.152   1.802
  283ACOH    H111162   5.516   3.062   1.813
  283ACOH    H211163   5.439   3.196   1.899
  283ACOH    H311164   5.511   3.223   1.740
  284ACOH    H411165   8.631   8.436   0.836
  284ACOH    O211166   8.643   8.507   0.765
  284ACOH    C211167   8.618   8.624   0.827
  284ACOH    O111168   8.608   8.644   0.947
  284ACOH    C111169   8.606   8.734   0.729
  284ACOH    H111170   8.504   8.770   0.728
  284ACOH    H211171   8.632   8.700   0.629
  284ACOH    H311172   8.672   8.815   0.757
  285ACOH    H411173   5.335   2.195   3.550
  285ACOH    O211174   5.389   2.113   3.528
  285ACOH    C211175   5.319   2.005   3.569
  285ACOH    O111176   5.212   2.003   3.627
  285ACOH    C111177   5.392   1.880   3.538
  285ACOH    H111178   5.332   1.819   3.472
  285ACOH    H211179   5.411   1.825   3.630
  285ACOH    H311180   5.487   1.902   3.489
  286ACOH    H411181   3.993   7.825   0.591
  286ACOH    O211182   4.080   7.785   0.563
  286ACOH    C211183   4.098   7.672   0.632
  286ACOH    O111184   4.019   7.621   0.710
  286ACOH    C111185   4.229   7.611   0.598
  286ACOH    H111186   4.308   7.679   0.625
  286ACOH    H211187   4.233   7.592   0.491
  286ACOH    H311188   4.243   7.517   0.651
  287ACOH    H411189   5.350   3.578   0.086
  287ACOH    O211190   5.342   3.626   5.634
  287ACOH    C211191   5.462   3.620   5.575
  287ACOH    O111192   5.560   3.558   5.612
  287ACOH    C111193   5.462   3.699   5.449
  287ACOH    H111194   5.437   3.802   5.471
  287ACOH    H211195   5.387   3.658   5.382
  287ACOH    H311196   5.559   3.695   5.401
  288ACOH    H411197   5.436   7.571   4.378
  288ACOH    O211198   5.500   7.629   4.424
  288ACOH    C211199   5.619   7.564   4.418
  288ACOH    O111200   5.639   7.456   4.365
  288ACOH    C111201   5.725   7.638   4.490
  288ACOH    H111202   5.698   7.649   4.595
  288ACOH    H211203   5.737   7.736   4.446
  288ACOH    H311204   5.820   7.584   4.484
  289ACOH    H411205   4.001   8.228   3.881
  289ACOH    O211206   3.936   8.157   3.906
  289ACOH    C211207   3.857   8.137   3.798
  289ACOH    O111208   3.860   8.200   3.694
  289ACOH    C111209   3.761   8.027   3.823
  289ACOH    H111210   3.696   8.053   3.906
  289ACOH    H211211   3.816   7.937   3.849
  289ACOH    H311212   3.700   8.007   3.735
  290ACOH    H411213   5.614   8.448   1.326
  290ACOH    O211214   5.632   8.415   1.233
  290ACOH    C211215   5.690   8.519   1.170
  290ACOH    O111216   5.766   8.599   1.222
  290ACOH    C111217   5.685   8.502   1.023
  290ACOH    H111218   5.666   8.598   0.976
  290ACOH    H211219   5.605   8.433   0.995
  290ACOH    H311220   5.780   8.462   0.986
  291ACOH    H411221   7.445   2.895   4.335
  291ACOH    O211222   7.376   2.853   4.282
  291ACOH    C211223   7.264   2.926   4.299
  291ACOH    O111224   7.253   3.024   4.370
  291ACOH    C111225   7.153   2.873   4.216
  291ACOH    H111226   7.182   2.873   4.112
  291ACOH    H211227   7.064   2.933   4.228
  291ACOH    H311228   7.131   2.771   4.246
  292ACOH    H411229   6.472   0.858   3.698
  292ACOH    O211230   6.503   0.779   3.751
  292ACOH    C211231   6.408   0.684   3.737
  292ACOH    O111232   6.303   0.692   3.677
  292ACOH    C111233   6.448   0.561   3.811
  292ACOH    H111234   6.380   0.546   3.894
  292ACOH    H211235   6.549   0.569   3.848
  292ACOH    H311236   6.441   0.476   3.744
  293ACOH    H411237   7.912   2.487   4.496
  293ACOH    O211238   7.817   2.468   4.475
  293ACOH    C211239   7.744   2.545   4.559
  293ACOH    O111240   7.785   2.599   4.660
  293ACOH    C111241   7.601   2.548   4.520
  293ACOH    H111242   7.542   2.501   4.598
  293ACOH    H211243   7.585   2.496   4.426
  293ACOH    H311244   7.569   2.651   4.510
  294ACOH    H411245   1.410   8.132   1.449
  294ACOH    O211246   1.329   8.080   1.421
  294ACOH    C211247   1.310   8.107   1.290
  294ACOH    O111248   1.382   8.175   1.219
  294ACOH    C111249   1.187   8.042   1.241
  294ACOH    H111250   1.101   8.079   1.296
  294ACOH    H211251   1.194   7.934   1.256
  294ACOH    H311252   1.172   8.061   1.135
  295ACOH    H411253   4.545   4.181   3.815
  295ACOH    O211254   4.612   4.222   3.876
  295ACOH    C211255   4.547   4.312   3.953
  295ACOH    O111256   4.427   4.336   3.951
  295ACOH    C111257   4.639   4.377   4.048
  295ACOH    H111258   4.742   4.361   4.018
  295ACOH    H211259   4.625   4.334   4.146
  295ACOH    H311260   4.619   4.484   4.052
  296ACOH    H411261   0.684   0.290   4.052
  296ACOH    O211262   0.669   0.321   3.957
  296ACOH    C211263   0.565   0.406   3.963
  296ACOH    O111264   0.481   0.414   4.051
  296ACOH    C111265   0.547   0.476   3.834
  296ACOH    H111266   0.635   0.466   3.771
  296ACOH    H211267   0.527   0.582   3.850
  296ACOH    H311268   0.462   0.433   3.781
  297ACOH    H411269   7.502   7.961   1.176
  297ACOH    O211270   7.478   7.998   1.086
  297ACOH    C211271   7.583   7.973   1.006
  297ACOH    O111272   7.696   7.943   1.041
  297ACOH    C111273   7.552   8.001   0.864
  297ACOH    H111274   7.575   7.914   0.803
  297ACOH    H211275   7.611   8.085   0.830
  297ACOH    H311276   7.446   8.025   0.852
  298ACOH    H411277   7.561   2.902   1.604
  298ACOH    O211278   7.467   2.905   1.639
  298ACOH    C211279   7.393   2.965   1.544
  298ACOH    O111280   7.430   2.997   1.432
  298ACOH    C111281   7.252   2.980   1.587
  298ACOH    H111282   7.189   2.916   1.525
  298ACOH    H211283   7.221   3.083   1.573
  298ACOH    H311284   7.240   2.953   1.691
  299ACOH    H411285   5.196   4.902   0.582
  299ACOH    O211286   5.246   4.881   0.498
  299ACOH    C211287   5.317   4.990   0.465
  299ACOH    O111288   5.313   5.100   0.517
  299ACOH    C111289   5.401   4.962   0.345
  299ACOH    H111290   5.467   4.878   0.367
  299ACOH    H211291   5.461   5.049   0.320
  299ACOH    H311292   5.337   4.937   0.261
  300ACOH    H411293   6.782   8.205   4.420
  300ACOH    O211294   6.802   8.260   4.501
  300ACOH    C211295   6.718   8.365   4.500
  300ACOH    O111296   6.636   8.392   4.414
  300ACOH    C111297   6.744   8.452   4.616
  300ACOH    H111298   6.848   8.482   4.616
  300ACOH    H211299   6.723   8.398   4.708
  300ACOH    H311300   6.682   8.542   4.612
  301ACOH    H411301   5.040   2.586   3.932
  301ACOH    O211302   5.081   2.661   3.880
  301ACOH    C211303   5.000   2.768   3.888
  301ACOH    O111304   5.008   2.864   3.813
  301ACOH    C111305   4.891   2.758   3.989
  301ACOH    H111306   4.821   2.680   3.960
  301ACOH    H211307   4.837   2.852   3.998
  301ACOH    H311308   4.933   2.733   4.086
  302ACOH    H411309   9.223   7.108   0.322
  302ACOH    O211310   9.308   7.113   0.272
  302ACOH    C211311   9.379   7.215   0.324
  302ACOH    O111312   9.341   7.292   0.411
  302ACOH    C111313   9.510   7.229   0.257
  302ACOH    H111314   9.569   7.308   0.303
  302ACOH    H211315   9.495   7.254   0.152
  302ACOH    H311316   9.565   7.136   0.263
  303ACOH    H411317   4.224   7.411   4.358
  303ACOH    O211318   4.236   7.335   4.421
  303ACOH    C211319   4.225   7.222   4.350
  303ACOH    O111320   4.170   7.209   4.242
  303ACOH    C111321   4.278   7.107   4.427
  303ACOH    H111322   4.384   7.123   4.446
  303ACOH    H211323   4.266   7.014   4.372
  303ACOH    H311324   4.225   7.099   4.522
  304ACOH    H411325   6.320   1.722   2.114
  304ACOH    O211326   6.312   1.812   2.072
  304ACOH    C211327   6.331   1.903   2.170
  304ACOH    O111328   6.352   1.880   2.288
  304ACOH    C111329   6.319   2.040   2.116
  304ACOH    H111330   6.394   2.055   2.038
  304ACOH    H211331   6.334   2.114   2.194
  304ACOH    H311332   6.220   2.054   2.073
  305ACOH    H411333   7.378   6.062   2.645
  305ACOH    O211334   7.380   5.970   2.680
  305ACOH    C211335   7.383   5.887   2.575
  305ACOH    O111336   7.378   5.919   2.457
  305ACOH    C111337   7.399   5.746   2.619
  305ACOH    H111338   7.490   5.737   2.678
  305ACOH    H211339   7.408   5.680   2.533
  305ACOH    H311340   7.314   5.717   2.679
  306ACOH    H411341   2.109   0.102   4.472
  306ACOH    O211342   2.057   0.172   4.429
  306ACOH    C211343   2.141   0.276   4.413
  306ACOH    O111344   2.254   0.285   4.458
  306ACOH    C111345   2.075   0.385   4.338
  306ACOH    H111346   1.990   0.423   4.395
  306ACOH    H211347   2.038   0.347   4.244
  306ACOH    H311348   2.144   0.467   4.318
  307ACOH    H411349   5.288   1.334   0.521
  307ACOH    O211350   5.387   1.334   0.525
  307ACOH    C211351   5.426   1.211   0.562
  307ACOH    O111352   5.354   1.114   0.577
  307ACOH    C111353   5.573   1.202   0.577
  307ACOH    H111354   5.613   1.136   0.502
  307ACOH    H211355   5.597   1.163   0.676
  307ACOH    H311356   5.618   1.300   0.567
  308ACOH    H411357   6.019   8.639   0.907
  308ACOH    O211358   6.029   8.655   0.809
  308ACOH    C211359   5.945   8.754   0.776
  308ACOH    O111360   5.846   8.789   0.839
  308ACOH    C111361   5.969   8.801   0.638
  308ACOH    H111362   5.893   8.760   0.573
  308ACOH    H211363   6.067   8.769   0.603
  308ACOH    H311364   5.964   8.910   0.635
  309ACOH    H411365   7.092   5.573   4.172
  309ACOH    O211366   7.026   5.647   4.179
  309ACOH    C211367   7.085   5.758   4.131
  309ACOH    O111368   7.197   5.768   4.086
  309ACOH    C111369   6.993   5.874   4.135
  309ACOH    H111370   6.898   5.847   4.179
  309ACOH    H211371   6.977   5.912   4.035
  309ACOH    H311372   7.038   5.953   4.195
  310ACOH    H411373   7.284   2.451   2.088
  310ACOH    O211374   7.191   2.450   2.051
  310ACOH    C211375   7.194   2.522   1.938
  310ACOH    O111376   7.292   2.561   1.877
  310ACOH    C111377   7.056   2.544   1.888
  310ACOH    H111378   6.999   2.598   1.963
  310ACOH    H211379   7.009   2.448   1.869
  310ACOH    H311380   7.057   2.602   1.796
  311ACOH    H411381   8.175   4.060   2.943
  311ACOH    O211382   8.154   4.146   2.897
  311ACOH    C211383   8.208   4.244   2.972
  311ACOH    O111384   8.254   4.233   3.084
  311ACOH    C111385   8.197   4.375   2.904
  311ACOH    H111386   8.152   4.364   2.806
  311ACOH    H211387   8.296   4.418   2.892
  311ACOH    H311388   8.136   4.443   2.964
  312ACOH    H411389   5.283   1.966   3.238
  312ACOH    O211390   5.380   1.986   3.238
  312ACOH    C211391   5.390   2.119   3.220
  312ACOH    O111392   5.307   2.189   3.165
  312ACOH    C111393   5.529   2.166   3.241
  312ACOH    H111394   5.528   2.259   3.297
  312ACOH    H211395   5.577   2.183   3.145
  312ACOH    H311396   5.586   2.092   3.297
  313ACOH    H411397   8.104   8.274   1.129
  313ACOH    O211398   8.105   8.177   1.110
  313ACOH    C211399   8.115   8.165   0.976
  313ACOH    O111400   8.123   8.255   0.894
  313ACOH    C111401   8.113   8.021   0.938
  313ACOH    H111402   8.021   7.976   0.973
  313ACOH    H211403   8.197   7.971   0.984
  313ACOH    H311404   8.119   8.011   0.830
  314ACOH    H411405   2.152   6.481   4.547
  314ACOH    O211406   2.096   6.407   4.575
  314ACOH    C211407   1.979   6.460   4.615
  314ACOH    O111408   1.954   6.579   4.627
  314ACOH    C111409   1.879   6.356   4.649
  314ACOH    H111410   1.917   6.257   4.625
  314ACOH    H211411   1.788   6.373   4.592
  314ACOH    H311412   1.856   6.361   4.755
  315ACOH    H411413   5.279   6.471   1.795
  315ACOH    O211414   5.335   6.398   1.758
  315ACOH    C211415   5.421   6.455   1.672
  315ACOH    O111416   5.431   6.573   1.645
  315ACOH    C111417   5.508   6.353   1.607
  315ACOH    H111418   5.613   6.375   1.629
  315ACOH    H211419   5.493   6.355   1.500
  315ACOH    H311420   5.485   6.254   1.645
  316ACOH    H411421   7.798   1.760   4.400
  316ACOH    O211422   7.838   1.836   4.450
  316ACOH    C211423   7.770   1.844   4.566
  316ACOH    O111424   7.679   1.772   4.601
  316ACOH    C111425   7.823   1.953   4.651
  316ACOH    H111426   7.927   1.932   4.677
  316ACOH    H211427   7.765   1.962   4.743
  316ACOH    H311428   7.819   2.047   4.597
  317ACOH    H411429   8.052   3.790   3.243
  317ACOH    O211430   8.042   3.757   3.149
  317ACOH    C211431   8.021   3.624   3.156
  317ACOH    O111432   8.007   3.557   3.257
  317ACOH    C111433   8.010   3.567   3.019
  317ACOH    H111434   7.930   3.617   2.966
  317ACOH    H211435   7.988   3.460   3.023
  317ACOH    H311436   8.103   3.582   2.966
  318ACOH    H411437   6.945   1.891   3.479
  318ACOH    O211438   6.906   1.934   3.561
  318ACOH    C211439   6.778   1.892   3.567
  318ACOH    O111440   6.719   1.825   3.484
  318ACOH    C111441   6.716   1.936   3.693
  318ACOH    H111442   6.715   2.044   3.698
  318ACOH    H211443   6.772   1.896   3.778
  318ACOH    H311444   6.613   1.900   3.699
  319ACOH    H411445   5.677   1.764   2.063
  319ACOH    O211446   5.744   1.771   1.989
  319ACOH    C211447   5.863   1.800   2.045
  319ACOH    O111448   5.884   1.831   2.161
  319ACOH    C111449   5.970   1.797   1.943
  319ACOH    H111450   6.065   1.828   1.985
  319ACOH    H211451   5.944   1.864   1.861
  319ACOH    H311452   5.979   1.696   1.904
  320ACOH    H411453   7.520   1.813   0.048
  320ACOH    O211454   7.437   1.868   0.061
  320ACOH    C211455   7.364   1.810   0.158
  320ACOH    O111456   7.398   1.717   0.230
  320ACOH    C111457   7.236   1.881   0.179
  320ACOH    H111458   7.241   1.936   0.273
  320ACOH    H211459   7.155   1.810   0.185
  320ACOH    H311460   7.217   1.951   0.098
  321ACOH    H411461   7.841   3.306   3.992
  321ACOH    O211462   7.861   3.388   3.938
  321ACOH    C211463   7.818   3.493   4.012
  321ACOH    O111464   7.754   3.490   4.116
  321ACOH    C111465   7.853   3.622   3.946
  321ACOH    H111466   7.762   3.678   3.924
  321ACOH    H211467   7.908   3.605   3.854
  321ACOH    H311468   7.915   3.681   4.014
  322ACOH    H411469   4.273   4.222   3.334
  322ACOH    O211470   4.187   4.218   3.285
  322ACOH    C211471   4.097   4.292   3.352
  322ACOH    O111472   4.118   4.363   3.449
  322ACOH    C111473   3.963   4.278   3.290
  322ACOH    H111474   3.932   4.174   3.293
  322ACOH    H211475   3.968   4.310   3.186
  322ACOH    H311476   3.889   4.339   3.342
  323ACOH    H411477   6.889   6.540   3.987
  323ACOH    O211478   6.857   6.471   4.051
  323ACOH    C211479   6.804   6.373   3.976
  323ACOH    O111480   6.766   6.382   3.861
  323ACOH    C111481   6.776   6.254   4.061
  323ACOH    H111482   6.869   6.213   4.097
  323ACOH    H211483   6.724   6.178   4.003
  323ACOH    H311484   6.714   6.284   4.146
  324ACOH    H411485   6.770   7.603   2.752
  324ACOH    O211486   6.751   7.607   2.850
  324ACOH    C211487   6.685   7.722   2.873
  324ACOH    O111488   6.637   7.796   2.790
  324ACOH    C111489   6.663   7.744   3.018
  324ACOH    H111490   6.556   7.744   3.040
  324ACOH    H211491   6.704   7.841   3.046
  324ACOH    H311492   6.711   7.667   3.078
  325ACOH    H411493   4.787   8.739   1.343
  325ACOH    O211494   4.707   8.792   1.368
  325ACOH    C211495   4.729   8.838   1.493
  325ACOH    O111496   4.832   8.828   1.557
  325ACOH    C111497   4.618   8.924   1.539
  325ACOH    H111498   4.529   8.910   1.477
  325ACOH    H211499   4.648   9.028   1.535
  325ACOH    H311500   4.593   8.899   1.642
  326ACOH    H411501   8.664   9.246   0.107
  326ACOH    O211502   8.665   9.162   0.053
  326ACOH    C211503   8.579   9.181   5.585
  326ACOH    O111504   8.525   9.285   5.553
  326ACOH    C111505   8.563   9.055   5.508
  326ACOH    H111506   8.527   8.976   5.574
  326ACOH    H211507   8.660   9.026   5.467
  326ACOH    H311508   8.492   9.068   5.427
  327ACOH    H411509   4.241   8.819   4.406
  327ACOH    O211510   4.272   8.748   4.467
  327ACOH    C211511   4.380   8.797   4.532
  327ACOH    O111512   4.417   8.913   4.535
  327ACOH    C111513   4.442   8.691   4.615
  327ACOH    H111514   4.520   8.732   4.679
  327ACOH    H211515   4.486   8.616   4.550
  327ACOH    H311516   4.367   8.643   4.677
  328ACOH    H411517   5.722   1.219   4.360
  328ACOH    O211518   5.789   1.155   4.396
  328ACOH    C211519   5.752   1.126   4.522
  328ACOH    O111520   5.665   1.180   4.587
  328ACOH    C111521   5.842   1.024   4.582
  328ACOH    H111522   5.896   1.067   4.665
  328ACOH    H211523   5.914   0.988   4.508
  328ACOH    H311524   5.783   0.940   4.617
  329ACOH    H411525   5.130   1.576   1.970
  329ACOH    O211526   5.057   1.549   1.907
  329ACOH    C211527   4.970   1.652   1.902
  329ACOH    O111528   4.976   1.756   1.965
  329ACOH    C111529   4.858   1.624   1.809
  329ACOH    H111530   4.862   1.694   1.726
  329ACOH    H211531   4.763   1.637   1.860
  329ACOH    H311532   4.863   1.523   1.770
  330ACOH    H411533   7.242   6.246   3.121
  330ACOH    O211534   7.290   6.230   3.207
  330ACOH    C211535   7.375   6.128   3.183
  330ACOH    O111536   7.388   6.064   3.081
  330ACOH    C111537   7.456   6.100   3.304
  330ACOH    H111538   7.391   6.078   3.388
  330ACOH    H211539   7.517   6.187   3.328
  330ACOH    H311540   7.522   6.015   3.288
  331ACOH    H411541   7.457   7.690   2.563
  331ACOH    O211542   7.463   7.615   2.629
  331ACOH    C211543   7.511   7.669   2.742
  331ACOH    O111544   7.605   7.746   2.743
  331ACOH    C111545   7.481   7.580   2.856
  331ACOH    H111546   7.388   7.527   2.839
  331ACOH    H211547   7.472   7.638   2.947
  331ACOH    H311548   7.561   7.507   2.869
  332ACOH    H411549   4.484   8.057   0.200
  332ACOH    O211550   4.539   8.011   0.269
  332ACOH    C211551   4.471   7.900   0.304
  332ACOH    O111552   4.364   7.863   0.259
  332ACOH    C111553   4.543   7.825   0.409
  332ACOH    H111554   4.491   7.733   0.432
  332ACOH    H211555   4.549   7.886   0.499
  332ACOH    H311556   4.644   7.802   0.375
  333ACOH    H411557   8.216   4.614   1.587
  333ACOH    O211558   8.264   4.650   1.507
  333ACOH    C211559   8.209   4.770   1.481
  333ACOH    O111560   8.101   4.810   1.520
  333ACOH    C111561   8.290   4.843   1.380
  333ACOH    H111562   8.388   4.866   1.422
  333ACOH    H211563   8.242   4.936   1.352
  333ACOH    H311564   8.303   4.782   1.291
  334ACOH    H411565   3.576   5.736   4.532
  334ACOH    O211566   3.590   5.825   4.496
  334ACOH    C211567   3.528   5.829   4.377
  334ACOH    O111568   3.454   5.743   4.333
  334ACOH    C111569   3.549   5.959   4.309
  334ACOH    H111570   3.525   6.041   4.376
  334ACOH    H211571   3.487   5.967   4.220
  334ACOH    H311572   3.653   5.968   4.280
  335ACOH    H411573   5.030   3.368   3.336
  335ACOH    O211574   5.103   3.302   3.349
  335ACOH    C211575   5.197   3.363   3.423
  335ACOH    O111576   5.201   3.480   3.452
  335ACOH    C111577   5.306   3.268   3.459
  335ACOH    H111578   5.386   3.320   3.512
  335ACOH    H211579   5.347   3.223   3.369
  335ACOH    H311580   5.266   3.190   3.523
  336ACOH    H411581   5.005   8.947   0.062
  336ACOH    O211582   5.054   9.029   0.034
  336ACOH    C211583   4.962   9.115   5.621
  336ACOH    O111584   4.844   9.094   5.604
  336ACOH    C111585   5.027   9.243   5.582
  336ACOH    H111586   4.954   9.311   5.538
  336ACOH    H211587   5.105   9.223   5.509
  336ACOH    H311588   5.070   9.290   0.035
  337ACOH    H411589   7.684   7.808   4.264
  337ACOH    O211590   7.595   7.761   4.259
  337ACOH    C211591   7.623   7.630   4.246
  337ACOH    O111592   7.734   7.580   4.238
  337ACOH    C111593   7.498   7.550   4.237
  337ACOH    H111594   7.521   7.445   4.225
  337ACOH    H211595   7.440   7.583   4.152
  337ACOH    H311596   7.439   7.563   4.327
  338ACOH    H411597   4.868   4.870   0.369
  338ACOH    O211598   4.931   4.834   0.300
  338ACOH    C211599   5.004   4.739   0.361
  338ACOH    O111600   4.983   4.688   0.469
  338ACOH    C111601   5.110   4.690   0.269
  338ACOH    H111602   5.063   4.650   0.179
  338ACOH    H211603   5.169   4.612   0.316
  338ACOH    H311604   5.175   4.772   0.242
  339ACOH    H411605   5.206   0.417   1.031
  339ACOH    O211606   5.187   0.513   1.043
  339ACOH    C211607   5.054   0.528   1.048
  339ACOH    O111608   4.971   0.441   1.027
  339ACOH    C111609   5.018   0.670   1.072
  339ACOH    H111610   5.054   0.699   1.171
  339ACOH    H211611   4.911   0.684   1.068
  339ACOH    H311612   5.066   0.733   0.998
  340ACOH    H411613   6.677   1.690   4.095
  340ACOH    O211614   6.695   1.716   4.189
  340ACOH    C211615   6.771   1.619   4.243
  340ACOH    O111616   6.787   1.507   4.199
  340ACOH    C111617   6.820   1.658   4.377
  340ACOH    H111618   6.798   1.762   4.398
  340ACOH    H211619   6.927   1.643   4.383
  340ACOH    H311620   6.772   1.596   4.453
  341ACOH    H411621   6.930   6.234   2.416
  341ACOH    O211622   6.944   6.172   2.340
  341ACOH    C211623   7.076   6.146   2.335
  341ACOH    O111624   7.162   6.193   2.408
  341ACOH    C111625   7.109   6.055   2.223
  341ACOH    H111626   7.166   5.970   2.261
  341ACOH    H211627   7.168   6.107   2.149
  341ACOH    H311628   7.018   6.018   2.176
  342ACOH    H411629   0.259   7.622   0.590
  342ACOH    O211630   0.284   7.528   0.614
  342ACOH    C211631   0.209   7.447   0.537
  342ACOH    O111632   0.121   7.481   0.459
  342ACOH    C111633   0.246   7.306   0.559
  342ACOH    H111634   0.191   7.240   0.492
  342ACOH    H211635   0.224   7.278   0.662
  342ACOH    H311636   0.352   7.292   0.541
  343ACOH    H411637   8.254   8.618   0.343
  343ACOH    O211638   8.289   8.533   0.380
  343ACOH    C211639   8.305   8.554   0.512
  343ACOH    O111640   8.276   8.655   0.574
  343ACOH    C111641   8.358   8.432   0.578
  343ACOH    H111642   8.290   8.349   0.561
  343ACOH    H211643   8.368   8.447   0.686
  343ACOH    H311644   8.455   8.408   0.537
  344ACOH    H411645   4.696   2.587   1.167
  344ACOH    O211646   4.785   2.630   1.179
  344ACOH    C211647   4.879   2.540   1.148
  344ACOH    O111648   4.861   2.426   1.107
  344ACOH    C111649   5.016   2.595   1.164
  344ACOH    H111650   5.075   2.529   1.226
  344ACOH    H211651   5.012   2.693   1.212
  344ACOH    H311652   5.063   2.606   1.067
  345ACOH    H411653   6.655   0.190   1.955
  345ACOH    O211654   6.594   0.251   1.905
  345ACOH    C211655   6.579   0.200   1.781
  345ACOH    O111656   6.615   0.090   1.742
  345ACOH    C111657   6.498   0.292   1.698
  345ACOH    H111658   6.402   0.310   1.745
  345ACOH    H211659   6.481   0.250   1.599
  345ACOH    H311660   6.551   0.386   1.688
  346ACOH    H411661   3.549   5.687   0.439
  346ACOH    O211662   3.609   5.613   0.455
  346ACOH    C211663   3.552   5.503   0.402
  346ACOH    O111664   3.457   5.504   0.326
  346ACOH    C111665   3.630   5.380   0.428
  346ACOH    H111666   3.673   5.343   0.335
  346ACOH    H211667   3.565   5.304   0.469
  346ACOH    H311668   3.710   5.399   0.499
  347ACOH    H411669   6.734   1.010   0.949
  347ACOH    O211670   6.679   1.009   0.866
  347ACOH    C211671   6.740   1.090   0.778
  347ACOH    O111672   6.828   1.171   0.800
  347ACOH    C111673   6.676   1.080   0.644
  347ACOH    H111674   6.752   1.056   0.570
  347ACOH    H211675   6.629   1.174   0.618
  347ACOH    H311676   6.601   1.001   0.643
  348ACOH    H411677   8.645   7.322   4.581
  348ACOH    O211678   8.722   7.283   4.537
  348ACOH    C211679   8.723   7.329   4.410
  348ACOH    O111680   8.642   7.406   4.362
  348ACOH    C111681   8.839   7.277   4.333
  348ACOH    H111682   8.910   7.358   4.318
  348ACOH    H211683   8.806   7.240   4.237
  348ACOH    H311684   8.887   7.196   4.387
  349ACOH    H411685   7.091   6.439   2.810
  349ACOH    O211686   7.063   6.349   2.776
  349ACOH    C211687   7.113   6.259   2.863
  349ACOH    O111688   7.158   6.280   2.974
  349ACOH    C111689   7.096   6.122   2.809
  349ACOH    H111690   7.140   6.049   2.876
  349ACOH    H211691   7.145   6.115   2.712
  349ACOH    H311692   6.990   6.101   2.797
  350ACOH    H411693   4.235   5.130   1.191
  350ACOH    O211694   4.218   5.112   1.094
  350ACOH    C211695   4.323   5.041   1.050
  350ACOH    O111696   4.422   5.008   1.113
  350ACOH    C111697   4.309   5.014   0.905
  350ACOH    H111698   4.217   4.959   0.887
  350ACOH    H211699   4.393   4.955   0.868
  350ACOH    H311700   4.306   5.108   0.851
  351ACOH    H411701   5.180   3.557   0.875
  351ACOH    O211702   5.214   3.486   0.937
  351ACOH    C211703   5.299   3.548   1.021
  351ACOH    O111704   5.309   3.668   1.039
  351ACOH    C111705   5.369   3.449   1.106
  351ACOH    H111706   5.296   3.386   1.156
  351ACOH    H211707   5.431   3.498   1.180
  351ACOH    H311708   5.432   3.386   1.043
  352ACOH    H411709   3.621   4.524   3.109
  352ACOH    O211710   3.667   4.611   3.087
  352ACOH    C211711   3.738   4.647   3.196
  352ACOH    O111712   3.761   4.580   3.295
  352ACOH    C111713   3.799   4.781   3.178
  352ACOH    H111714   3.908   4.771   3.179
  352ACOH    H211715   3.768   4.846   3.259
  352ACOH    H311716   3.769   4.825   3.083
  353ACOH    H411717   1.830   2.368   3.320
  353ACOH    O211718   1.742   2.413   3.310
  353ACOH    C211719   1.747   2.475   3.190
  353ACOH    O111720   1.843   2.481   3.115
  353ACOH    C111721   1.619   2.545   3.161
  353ACOH    H111722   1.627   2.603   3.069
  353ACOH    H211723   1.595   2.612   3.243
  353ACOH    H311724   1.540   2.472   3.150
  354ACOH    H411725   4.542   6.294   0.934
  354ACOH    O211726   4.557   6.238   0.852
  354ACOH    C211727   4.655   6.150   0.884
  354ACOH    O111728   4.705   6.134   0.993
  354ACOH    C111729   4.690   6.065   0.768
  354ACOH    H111730   4.638   6.098   0.678
  354ACOH    H211731   4.660   5.963   0.789
  354ACOH    H311732   4.797   6.068   0.751
  355ACOH    H411733   5.359   5.735   1.265
  355ACOH    O211734   5.416   5.804   1.308
  355ACOH    C211735   5.374   5.924   1.265
  355ACOH    O111736   5.283   5.946   1.187
  355ACOH    C111737   5.451   6.033   1.331
  355ACOH    H111738   5.556   6.021   1.308
  355ACOH    H211739   5.436   6.027   1.438
  355ACOH    H311740   5.417   6.130   1.296
  356ACOH    H411741   9.429   7.511   5.582
  356ACOH    O211742   9.390   7.480   0.032
  356ACOH    C211743   9.258   7.506   0.022
  356ACOH    O111744   9.206   7.579   5.573
  356ACOH    C111745   9.182   7.446   0.134
  356ACOH    H111746   9.192   7.338   0.131
  356ACOH    H211747   9.077   7.472   0.128
  356ACOH    H311748   9.221   7.482   0.229
  357SOL     OW11749   1.227   3.000   1.656
  357SOL    HW111750   1.228   2.990   1.756
  357SOL    HW211751   1.316   3.030   1.625
  358SOL     OW11752   9.829   3.192   4.155
  358SOL    HW111753   9.917   3.236   4.143
  358SOL    HW211754   9.821   3.114   4.092
  359SOL     OW11755   2.816   7.555   3.882
  359SOL    HW111756   2.855   7.581   3.970
  359SOL    HW211757   2.718   7.576   3.882
  360SOL     OW11758   9.030   5.050   0.545
  360SOL    HW111759   8.934   5.067   0.523
  360SOL    HW211760   9.039   4.958   0.583
  361SOL     OW11761   4.623   7.032   1.907
  361SOL    HW111762   4.589   7.053   1.815
  361SOL    HW211763   4.592   7.102   1.971
  362SOL     OW11764   8.441   9.866   0.906
  362SOL    HW111765   8.356   9.879   0.956
  362SOL    HW211766   8.515   9.916   0.951
  363SOL     OW11767   9.659   8.991   0.564
  363SOL    HW111768   9.644   8.896   0.536
  363SOL    HW211769   9.749   8.999   0.608
  364SOL     OW11770   8.437   1.145   0.727
  364SOL    HW111771   8.482   1.204   0.661
  364SOL    HW211772   8.505   1.110   0.792
  365SOL     OW11773   7.613   2.339   2.982
  365SOL    HW111774   7.710   2.361   2.995
  365SOL    HW211775   7.594   2.249   3.020
  366SOL     OW11776   8.623   1.245   2.823
  366SOL    HW111777   8.657   1.204   2.908
  366SOL    HW211778   8.650   1.341   2.819
  367SOL     OW11779   5.942   0.763   3.475
  367SOL    HW111780   5.985   0.674   3.490
  367SOL    HW211781   6.008   0.836   3.493
  368SOL     OW11782   3.780   7.912   1.378
  368SOL    HW111783   3.772   7.999   1.426
  368SOL    HW211784   3.824   7.925   1.290
  369SOL     OW11785   9.491   8.653   1.078
  369SOL    HW111786   9.403   8.640   1.031
  369SOL    HW211787   9.510   8.750   1.088
  370SOL     OW11788   8.407   8.073   2.328
  370SOL    HW111789   8.417   8.011   2.250
  370SOL    HW211790   8.492   8.124   2.340
  371SOL     OW11791   7.563   7.480   2.278
  371SOL    HW111792   7.597   7.462   2.371
  371SOL    HW211793   7.465   7.457   2.274
  372SOL     OW11794   0.164   0.386   2.248
  372SOL    HW111795   0.141   0.478   2.281
  372SOL    HW211796   0.083   0.344   2.208
  373SOL     OW11797   5.289   3.559   1.897
  373SOL    HW111798   5.222   3.533   1.967
  373SOL    HW211799   5.261   3.521   1.809
  374SOL     OW11800   7.618   4.467   0.692
  374SOL    HW111801   7.537   4.516   0.725
  374SOL    HW211802   7.700   4.518   0.719
  375SOL     OW11803   0.976   6.503   4.160
  375SOL    HW111804   0.946   6.445   4.235
  375SOL    HW211805   1.055   6.557   4.189
  376SOL     OW11806   8.072   3.230   1.374
  376SOL    HW111807   8.076   3.242   1.474
  376SOL    HW211808   8.130   3.299   1.330
  377SOL     OW11809   8.453   4.251   1.586
  377SOL    HW111810   8.368   4.256   1.638
  377SOL    HW211811   8.453   4.321   1.515
  378SOL     OW11812   3.294   8.689   2.987
  378SOL    HW111813   3.239   8.606   2.997
  378SOL    HW211814   3.289   8.721   2.892
  379SOL     OW11815   9.384   3.377   4.067
  379SOL    HW111816   9.298   3.426   4.047
  379SOL    HW211817   9.398   3.375   4.166
  380SOL     OW11818   4.980   1.516   2.252
  380SOL    HW111819   5.017   1.608   2.246
  380SOL    HW211820   4.893   1.512   2.203
  381SOL     OW11821   4.145   0.374   0.406
  381SOL    HW111822   4.086   0.320   0.467
  381SOL    HW211823   4.201   0.313   0.350
  382SOL     OW11824   1.571   0.890   3.772
  382SOL    HW111825   1.661   0.920   3.741
  382SOL    HW211826   1.551   0.931   3.860
  383SOL     OW11827   7.280   1.277   1.650
  383SOL    HW111828   7.277   1.375   1.669
  383SOL    HW211829   7.370   1.252   1.615
  384SOL     OW11830   4.067   9.124   2.473
  384SOL    HW111831   4.113   9.156   2.390
  384SOL    HW211832   4.122   9.053   2.517
  385SOL     OW11833   9.451   8.578   1.467
  385SOL    HW111834   9.548   8.589   1.446
  385SOL    HW211835   9.438   8.586   1.566
  386SOL     OW11836   7.165   8.957   2.715
  386SOL    HW111837   7.229   8.961   2.639
  386SOL    HW211838   7.096   8.887   2.697
  387SOL     OW11839   2.030   0.973   1.865
  387SOL    HW111840   1.942   0.965   1.911
  387SOL    HW211841   2.024   0.932   1.774
  388SOL     OW11842   1.081   5.090   2.260
  388SOL    HW111843   1.051   5.176   2.220
  388SOL    HW211844   1.181   5.082   2.252
  389SOL     OW11845   7.756   4.116   0.184
  389SOL    HW111846   7.779   4.174   0.262
  389SOL    HW211847   7.664   4.139   0.152
  390SOL     OW11848   9.615   5.365   0.467
  390SOL    HW111849   9.696   5.403   0.512
  390SOL    HW211850   9.626   5.371   0.368
  391SOL     OW11851   7.301   6.394   3.444
  391SOL    HW111852   7.220   6.448   3.470
  391SOL    HW211853   7.280   6.340   3.363
  392SOL     OW11854   6.788   0.549   0.100
  392SOL    HW111855   6.779   0.483   0.025
  392SOL    HW211856   6.726   0.524   0.174
  393SOL     OW11857   9.335   0.832   1.688
  393SOL    HW111858   9.331   0.869   1.781
  393SOL    HW211859   9.345   0.732   1.693
  394SOL     OW11860   9.297   1.281   1.829
  394SOL    HW111861   9.235   1.204   1.811
  394SOL    HW211862   9.286   1.350   1.757
  395SOL     OW11863   1.666   1.453   1.787
  395SOL    HW111864   1.705   1.380   1.732
  395SOL    HW211865   1.712   1.456   1.876
  396SOL     OW11866   1.648   5.951   0.735
  396SOL    HW111867   1.692   5.997   0.813
  396SOL    HW211868   1.552   5.934   0.757
  397SOL     OW11869   2.579   1.232   1.248
  397SOL    HW111870   2.627   1.176   1.316
  397SOL    HW211871   2.535   1.309   1.294
  398SOL     OW11872   0.258   7.402   1.008
  398SOL    HW111873   0.167   7.390   0.969
  398SOL    HW211874   0.316   7.452   0.943
  399SOL     OW11875   3.786   0.058   1.785
  399SOL    HW111876   3.813   0.151   1.757
  399SOL    HW211877   3.774   0.055   1.884
  400SOL     OW11878   7.215   0.465   0.699
  400SOL    HW111879   7.285   0.506   0.640
  400SOL    HW211880   7.191   0.528   0.772
  401SOL     OW11881   2.871   0.105   0.855
  401SOL    HW111882   2.952   0.047   0.866
  401SOL    HW211883   2.876   0.181   0.919
  402SOL     OW11884   2.849   8.894   2.321
  402SOL    HW111885   2.823   8.981   2.363
  402SOL    HW211886   2.949   8.891   2.310
  403SOL     OW11887   8.712   1.630   2.569
  403SOL    HW111888   8.702   1.584   2.657
  403SOL    HW211889   8.622   1.651   2.531
  404SOL     OW11890   0.121   3.222   3.706
  404SOL    HW111891   0.203   3.260   3.663
  404SOL    HW211892   0.148   3.153   3.774
  405SOL     OW11893   4.302   9.718   4.262
  405SOL    HW111894   4.298   9.758   4.354
  405SOL    HW211895   4.269   9.784   4.195
  406SOL     OW11896   3.893   3.529   0.882
  406SOL    HW111897   3.901   3.485   0.971
  406SOL    HW211898   3.966   3.496   0.821
  407SOL     OW11899   2.458   8.515   2.269
  407SOL    HW111900   2.528   8.452   2.236
  407SOL    HW211901   2.368   8.470   2.262
  408SOL     OW11902   8.544   0.037   2.278
  408SOL    HW111903   8.538   9.941   2.249
  408SOL    HW211904   8.638   0.070   2.266
  409SOL     OW11905   8.743   0.402   0.368
  409SOL    HW111906   8.775   0.331   0.305
  409SOL    HW211907   8.798   0.484   0.357
  410SOL     OW11908   1.754   7.880   3.268
  410SOL    HW111909   1.775   7.866   3.365
  410SOL    HW211910   1.657   7.860   3.252
  411SOL     OW11911   6.295   8.486   1.750
  411SOL    HW111912   6.352   8.472   1.831
  411SOL    HW211913   6.216   8.425   1.753
  412SOL     OW11914   4.195   3.317   4.348
  412SOL    HW111915   4.128   3.251   4.315
  412SOL    HW211916   4.278   3.270   4.377
  413SOL     OW11917   1.834   6.108   4.379
  413SOL    HW111918   1.747   6.157   4.380
  413SOL    HW211919   1.904   6.165   4.336
  414SOL     OW11920   3.768   2.984   2.868
  414SOL    HW111921   3.859   2.943   2.852
  414SOL    HW211922   3.706   2.957   2.794
  415SOL     OW11923   8.403   3.113   2.298
  415SOL    HW111924   8.441   3.177   2.231
  415SOL    HW211925   8.361   3.036   2.251
  416SOL     OW11926   9.137   5.407   2.050
  416SOL    HW111927   9.165   5.432   1.957
  416SOL    HW211928   9.210   5.429   2.114
  417SOL     OW11929   4.245   2.621   0.553
  417SOL    HW111930   4.244   2.522   0.549
  417SOL    HW211931   4.282   2.651   0.641
  418SOL     OW11932   8.096   1.890   4.334
  418SOL    HW111933   8.002   1.892   4.366
  418SOL    HW211934   8.143   1.810   4.371
  419SOL     OW11935   3.205   5.224   1.947
  419SOL    HW111936   3.226   5.286   1.872
  419SOL    HW211937   3.111   5.240   1.978
  420SOL     OW11938   9.671   5.771   4.026
  420SOL    HW111939   9.633   5.733   4.110
  420SOL    HW211940   9.764   5.804   4.042
  421SOL     OW11941   9.644   1.088   0.087
  421SOL    HW111942   9.721   1.098   0.149
  421SOL    HW211943   9.651   1.156   0.014
  422SOL     OW11944   2.956   7.631   4.115
  422SOL    HW111945   2.909   7.699   4.170
  422SOL    HW211946   3.001   7.564   4.174
  423SOL     OW11947   0.339   5.293   3.795
  423SOL    HW111948   0.427   5.248   3.774
  423SOL    HW211949   0.270   5.223   3.811
  424SOL     OW11950   0.001   1.660   3.133
  424SOL    HW111951   9.981   1.613   3.219
  424SOL    HW211952   9.983   1.598   3.056
  425SOL     OW11953   5.214   0.024   2.657
  425SOL    HW111954   5.285   0.094   2.643
  425SOL    HW211955   5.258   9.935   2.665
  426SOL     OW11956   9.396   5.004   2.876
  426SOL    HW111957   9.366   4.912   2.850
  426SOL    HW211958   9.375   5.019   2.973
  427SOL     OW11959   5.369   8.767   2.180
  427SOL    HW111960   5.422   8.850   2.197
  427SOL    HW211961   5.272   8.790   2.168
  428SOL     OW11962   0.552   8.779   0.582
  428SOL    HW111963   0.592   8.868   0.563
  428SOL    HW211964   0.614   8.707   0.552
  429SOL     OW11965   2.691   1.675   0.440
  429SOL    HW111966   2.696   1.773   0.458
  429SOL    HW211967   2.781   1.641   0.412
  430SOL     OW11968   9.621   5.128   2.783
  430SOL    HW111969   9.677   5.113   2.864
  430SOL    HW211970   9.530   5.089   2.798
  431SOL     OW11971   2.543   8.496   3.246
  431SOL    HW111972   2.608   8.500   3.171
  431SOL    HW211973   2.451   8.484   3.210
  432SOL     OW11974   1.234   5.326   1.511
  432SOL    HW111975   1.277   5.377   1.585
  432SOL    HW211976   1.212   5.389   1.436
  433SOL     OW11977   1.052   2.048   4.028
  433SOL    HW111978   0.981   2.107   4.065
  433SOL    HW211979   1.059   1.965   4.082
  434SOL     OW11980   7.077   1.780   3.815
  434SOL    HW111981   7.058   1.878   3.820
  434SOL    HW211982   7.171   1.765   3.785
  435SOL     OW11983   3.862   4.402   1.611
  435SOL    HW111984   3.812   4.415   1.697
  435SOL    HW211985   3.959   4.426   1.625
  436SOL     OW11986   7.801   9.447   2.557
  436SOL    HW111987   7.743   9.447   2.638
  436SOL    HW211988   7.894   9.473   2.581
  437SOL     OW11989   7.029   9.556   2.523
  437SOL    HW111990   6.981   9.636   2.489
  437SOL    HW211991   6.968   9.476   2.520
  438SOL     OW11992   9.207   5.937   0.298
  438SOL    HW111993   9.227   5.855   0.244
  438SOL    HW211994   9.293   5.983   0.322
  439SOL     OW11995   3.197   6.139   0.623
  439SOL    HW111996   3.290   6.107   0.644
  439SOL    HW211997   3.131   6.075   0.662
  440SOL     OW11998   3.661   0.836   1.356
  440SOL    HW111999   3.621   0.774   1.289
  440SOL    HW212000   3.599   0.845   1.434
  441SOL     OW12001   4.370   3.671   2.004
  441SOL    HW112002   4.456   3.622   2.013
  441SOL    HW212003   4.294   3.609   2.020
  442SOL     OW12004   0.812   5.616   2.300
  442SOL    HW112005   0.785   5.628   2.395
  442SOL    HW212006   0.881   5.685   2.276
  443SOL     OW12007   1.178   7.276   3.062
  443SOL    HW112008   1.190   7.240   3.155
  443SOL    HW212009   1.202   7.373   3.062
  444SOL     OW12010   4.925   6.774   1.763
  444SOL    HW112011   5.021   6.802   1.764
  444SOL    HW212012   4.891   6.770   1.857
  445SOL     OW12013   1.926   2.206   3.784
  445SOL    HW112014   2.024   2.202   3.764
  445SOL    HW212015   1.912   2.242   3.876
  446SOL     OW12016   0.792   3.866   3.371
  446SOL    HW112017   0.729   3.936   3.338
  446SOL    HW212018   0.743   3.800   3.427
  447SOL     OW12019   0.274   7.166   3.225
  447SOL    HW112020   0.296   7.118   3.310
  447SOL    HW212021   0.327   7.251   3.220
  448SOL     OW12022   6.865   9.942   3.994
  448SOL    HW112023   6.780   9.907   3.953
  448SOL    HW212024   6.942   9.888   3.960
  449SOL     OW12025   8.002   1.052   2.955
  449SOL    HW112026   8.040   0.970   2.914
  449SOL    HW212027   8.075   1.106   2.998
  450SOL     OW12028   3.305   1.470   3.627
  450SOL    HW112029   3.378   1.403   3.619
  450SOL    HW212030   3.338   1.559   3.594
  451SOL     OW12031   6.043   9.996   2.382
  451SOL    HW112032   6.055   0.096   2.384
  451SOL    HW212033   6.042   9.964   2.288
  452SOL     OW12034   8.896   6.126   1.987
  452SOL    HW112035   8.970   6.069   2.023
  452SOL    HW212036   8.913   6.146   1.890
  453SOL     OW12037   8.749   2.768   1.111
  453SOL    HW112038   8.831   2.712   1.105
  453SOL    HW212039   8.689   2.732   1.181
  454SOL     OW12040   7.897   0.333   1.121
  454SOL    HW112041   7.962   0.287   1.182
  454SOL    HW212042   7.916   0.431   1.119
  455SOL     OW12043   0.421   4.867   0.153
  455SOL    HW112044   0.519   4.889   0.152
  455SOL    HW212045   0.401   4.808   0.231
  456SOL     OW12046   1.707   8.621   1.666
  456SOL    HW112047   1.728   8.554   1.737
  456SOL    HW212048   1.792   8.655   1.625
  457SOL     OW12049   5.353   3.873   0.318
  457SOL    HW112050   5.365   3.971   0.330
  457SOL    HW212051   5.285   3.857   0.246
  458SOL     OW12052   8.169   4.542   1.723
  458SOL    HW112053   8.184   4.443   1.721
  458SOL    HW212054   8.105   4.564   1.796
  459SOL     OW12055   9.702   4.730   1.734
  459SOL    HW112056   9.794   4.766   1.746
  459SOL    HW212057   9.642   4.769   1.804
  460SOL     OW12058   8.204   8.967   2.550
  460SOL    HW112059   8.252   9.054   2.538
  460SOL    HW212060   8.109   8.984   2.577
  461SOL     OW12061   7.897   6.592   3.130
  461SOL    HW112062   7.847   6.677   3.146
  461SOL    HW212063   7.892   6.568   3.033
  462SOL     OW12064   4.777   8.571   3.298
  462SOL    HW112065   4.859   8.616   3.265
  462SOL    HW212066   4.748   8.611   3.385
  463SOL     OW12067   0.314   8.336   1.566
  463SOL    HW112068   0.383   8.400   1.601
  463SOL    HW212069   0.331   8.320   1.469
  464SOL     OW12070   8.517   2.661   4.234
  464SOL    HW112071   8.566   2.574   4.240
  464SOL    HW212072   8.442   2.662   4.300
  465SOL     OW12073   9.108   4.847   2.393
  465SOL    HW112074   9.077   4.756   2.421
  465SOL    HW212075   9.064   4.916   2.450
  466SOL     OW12076   5.615   0.337   1.289
  466SOL    HW112077   5.556   0.409   1.325
  466SOL    HW212078   5.576   0.301   1.205
  467SOL     OW12079   7.424   8.185   3.803
  467SOL    HW112080   7.349   8.203   3.739
  467SOL    HW212081   7.402   8.105   3.858
  468SOL     OW12082   4.460   1.235   0.318
  468SOL    HW112083   4.481   1.139   0.300
  468SOL    HW212084   4.365   1.254   0.293
  469SOL     OW12085   4.245   2.852   2.918
  469SOL    HW112086   4.247   2.930   2.980
  469SOL    HW212087   4.158   2.852   2.868
  470SOL     OW12088   3.770   3.327   3.614
  470SOL    HW112089   3.692   3.322   3.552
  470SOL    HW212090   3.821   3.410   3.596
  471SOL     OW12091   3.483   0.378   0.279
  471SOL    HW112092   3.454   0.447   0.212
  471SOL    HW212093   3.485   0.288   0.235
  472SOL     OW12094   2.335   6.377   3.373
  472SOL    HW112095   2.397   6.430   3.316
  472SOL    HW212096   2.377   6.362   3.463
  473SOL     OW12097   6.530   8.193   3.543
  473SOL    HW112098   6.576   8.104   3.539
  473SOL    HW212099   6.567   8.245   3.620
  474SOL     OW12100   6.507   6.890   2.779
  474SOL    HW112101   6.564   6.911   2.700
  474SOL    HW212102   6.410   6.902   2.755
  475SOL     OW12103   4.502   0.170   2.229
  475SOL    HW112104   4.504   0.224   2.145
  475SOL    HW212105   4.540   0.080   2.211
  476SOL     OW12106   4.011   2.706   3.742
  476SOL    HW112107   3.979   2.637   3.678
  476SOL    HW212108   3.957   2.701   3.826
  477SOL     OW12109   3.745   6.678   1.923
  477SOL    HW112110   3.649   6.692   1.948
  477SOL    HW212111   3.757   6.583   1.893
  478SOL     OW12112   9.631   9.494   2.915
  478SOL    HW112113   9.551   9.471   2.971
  478SOL    HW212114   9.705   9.429   2.934
  479SOL     OW12115   8.778   9.314   0.959
  479SOL    HW112116   8.877   9.309   0.967
  479SOL    HW212117   8.747   9.253   0.886
  480SOL     OW12118   3.800   1.490   1.297
  480SOL    HW112119   3.775   1.428   1.222
  480SOL    HW212120   3.794   1.584   1.265
  481SOL     OW12121   9.446   1.276   0.310
  481SOL    HW112122   9.494   1.360   0.286
  481SOL    HW212123   9.511   1.210   0.348
  482SOL     OW12124   5.521   9.417   2.669
  482SOL    HW112125   5.518   9.327   2.626
  482SOL    HW212126   5.430   9.442   2.702
  483SOL     OW12127   8.839   0.741   2.552
  483SOL    HW112128   8.916   0.688   2.588
  483SOL    HW212129   8.864   0.838   2.548
  484SOL     OW12130   5.653   1.073   2.275
  484SOL    HW112131   5.697   1.030   2.196
  484SOL    HW212132   5.554   1.076   2.260
  485SOL     OW12133   7.506   2.389   1.774
  485SOL    HW112134   7.448   2.339   1.709
  485SOL    HW212135   7.449   2.448   1.832
  486SOL     OW12136   1.505   5.370   3.908
  486SOL    HW112137   1.457   5.457   3.892
  486SOL    HW212138   1.571   5.355   3.835
  487SOL     OW12139   3.941   2.509   3.575
  487SOL    HW112140   4.003   2.447   3.526
  487SOL    HW212141   3.856   2.518   3.524
  488SOL     OW12142   7.940   4.839   4.054
  488SOL    HW112143   7.872   4.768   4.070
  488SOL    HW212144   8.018   4.800   4.005
  489SOL     OW12145   1.633   1.549   3.766
  489SOL    HW112146   1.629   1.481   3.693
  489SOL    HW212147   1.665   1.507   3.850
  490SOL     OW12148   3.071   7.460   4.298
  490SOL    HW112149   3.159   7.413   4.293
  490SOL    HW212150   3.030   7.446   4.388
  491SOL     OW12151   8.722   8.416   2.024
  491SOL    HW112152   8.781   8.428   1.945
  491SOL    HW212153   8.750   8.335   2.075
  492SOL     OW12154   0.937   0.491   1.195
  492SOL    HW112155   0.876   0.413   1.198
  492SOL    HW212156   1.013   0.476   1.258
  493SOL     OW12157   5.547   9.392   3.930
  493SOL    HW112158   5.574   9.465   3.867
  493SOL    HW212159   5.533   9.308   3.879
  494SOL     OW12160   2.023   3.748   0.201
  494SOL    HW112161   2.031   3.846   0.179
  494SOL    HW212162   1.927   3.721   0.200
  495SOL     OW12163   1.348   6.620   2.563
  495SOL    HW112164   1.292   6.700   2.585
  495SOL    HW212165   1.296   6.558   2.504
  496SOL     OW12166   1.797   9.511   0.228
  496SOL    HW112167   1.885   9.481   0.189
  496SOL    HW212168   1.773   9.452   0.305
  497SOL     OW12169   8.766   7.548   1.989
  497SOL    HW112170   8.811   7.534   1.901
  497SOL    HW212171   8.739   7.644   1.997
  498SOL     OW12172   2.075   7.531   0.884
  498SOL    HW112173   2.110   7.545   0.792
  498SOL    HW212174   1.981   7.566   0.889
  499SOL     OW12175   1.670   3.483   3.210
  499SOL    HW112176   1.698   3.579   3.219
  499SOL    HW212177   1.726   3.439   3.140
  500SOL     OW12178   2.243   8.708   0.478
  500SOL    HW112179   2.215   8.804   0.476
  500SOL    HW212180   2.341   8.703   0.500
  501SOL     OW12181   1.431   0.769   0.824
  501SOL    HW112182   1.512   0.741   0.772
  501SOL    HW212183   1.353   0.777   0.761
  502SOL     OW12184   8.522   2.234   2.789
  502SOL    HW112185   8.530   2.224   2.888
  502SOL    HW212186   8.611   2.259   2.750
  503SOL     OW12187   1.894   8.612   0.954
  503SOL    HW112188   1.914   8.710   0.946
  503SOL    HW212189   1.845   8.595   1.040
  504SOL     OW12190   8.644   8.415   2.711
  504SOL    HW112191   8.708   8.474   2.662
  504SOL    HW212192   8.641   8.442   2.807
  505SOL     OW12193   1.124   2.828   1.209
  505SOL    HW112194   1.119   2.812   1.308
  505SOL    HW212195   1.220   2.839   1.183
  506SOL     OW12196   3.061   6.207   2.203
  506SOL    HW112197   3.089   6.296   2.166
  506SOL    HW212198   3.043   6.215   2.301
  507SOL     OW12199   1.984   6.353   2.960
  507SOL    HW112200   1.958   6.260   2.988
  507SOL    HW212201   2.057   6.347   2.891
  508SOL     OW12202   9.903   2.354   2.326
  508SOL    HW112203   9.842   2.305   2.264
  508SOL    HW212204   9.997   2.345   2.294
  509SOL     OW12205   3.611   5.528   1.110
  509SOL    HW112206   3.564   5.440   1.103
  509SOL    HW212207   3.699   5.515   1.155
  510SOL     OW12208   2.655   3.631   0.764
  510SOL    HW112209   2.710   3.573   0.824
  510SOL    HW212210   2.711   3.707   0.730
  511SOL     OW12211   0.465   4.984   2.292
  511SOL    HW112212   0.512   5.048   2.353
  511SOL    HW212213   0.499   4.891   2.307
  512SOL     OW12214   9.240   4.195   2.501
  512SOL    HW112215   9.310   4.194   2.430
  512SOL    HW212216   9.261   4.125   2.570
  513SOL     OW12217   2.222   6.128   3.325
  513SOL    HW112218   2.223   6.102   3.229
  513SOL    HW212219   2.266   6.217   3.337
  514SOL     OW12220   3.573   2.633   0.337
  514SOL    HW112221   3.485   2.592   0.362
  514SOL    HW212222   3.647   2.569   0.355
  515SOL     OW12223   1.638   2.143   4.079
  515SOL    HW112224   1.713   2.190   4.035
  515SOL    HW212225   1.580   2.100   4.010
  516SOL     OW12226   4.257   6.500   3.464
  516SOL    HW112227   4.332   6.561   3.490
  516SOL    HW212228   4.284   6.405   3.481
  517SOL     OW12229   1.440   6.246   1.269
  517SOL    HW112230   1.528   6.225   1.312
  517SOL    HW212231   1.389   6.309   1.327
  518SOL     OW12232   2.166   6.599   3.306
  518SOL    HW112233   2.238   6.667   3.296
  518SOL    HW212234   2.206   6.514   3.341
  519SOL     OW12235   3.503   3.484   2.586
  519SOL    HW112236   3.481   3.481   2.489
  519SOL    HW212237   3.419   3.498   2.639
  520SOL     OW12238   9.841   5.957   2.086
  520SOL    HW112239   9.924   5.959   2.142
  520SOL    HW212240   9.848   5.883   2.019
  521SOL     OW12241   4.894   5.092   0.644
  521SOL    HW112242   4.957   5.170   0.645
  521SOL    HW212243   4.811   5.116   0.695
  522SOL     OW12244   0.019   3.380   1.548
  522SOL    HW112245   0.046   3.299   1.496
  522SOL    HW212246   9.947   3.356   1.613
  523SOL     OW12247   0.742   8.584   3.886
  523SOL    HW112248   0.742   8.682   3.907
  523SOL    HW212249   0.818   8.563   3.825
  524SOL     OW12250   0.877   1.392   0.561
  524SOL    HW112251   0.913   1.329   0.492
  524SOL    HW212252   0.804   1.447   0.521
  525SOL     OW12253   0.696   7.600   0.323
  525SOL    HW112254   0.713   7.689   0.366
  525SOL    HW212255   0.745   7.596   0.236
  526SOL     OW12256   0.328   4.950   4.210
  526SOL    HW112257   0.368   5.041   4.201
  526SOL    HW212258   0.325   4.905   4.121
  527SOL     OW12259   3.460   2.324   1.129
  527SOL    HW112260   3.461   2.236   1.082
  527SOL    HW212261   3.414   2.392   1.073
  528SOL     OW12262   8.121   8.856   3.813
  528SOL    HW112263   8.061   8.776   3.809
  528SOL    HW212264   8.214   8.827   3.838
  529SOL     OW12265   3.644   1.695   3.014
  529SOL    HW112266   3.642   1.714   3.112
  529SOL    HW212267   3.559   1.724   2.972
  530SOL     OW12268   2.494   1.913   1.127
  530SOL    HW112269   2.421   1.977   1.152
  530SOL    HW212270   2.471   1.822   1.163
  531SOL     OW12271   2.358   4.309   0.726
  531SOL    HW112272   2.456   4.293   0.713
  531SOL    HW212273   2.332   4.284   0.819
  532SOL     OW12274   1.887   0.550   3.090
  532SOL    HW112275   1.914   0.605   3.010
  532SOL    HW212276   1.968   0.508   3.130
  533SOL     OW12277   8.538   5.043   3.646
  533SOL    HW112278   8.446   5.056   3.609
  533SOL    HW212279   8.539   5.065   3.743
  534SOL     OW12280   3.490   1.025   3.078
  534SOL    HW112281   3.406   1.004   3.129
  534SOL    HW212282   3.510   1.122   3.086
  535SOL     OW12283   4.717   0.657   3.086
  535SOL    HW112284   4.727   0.694   3.179
  535SOL    HW212285   4.781   0.704   3.025
  536SOL     OW12286   1.317   9.344   2.891
  536SOL    HW112287   1.393   9.316   2.949
  536SOL    HW212288   1.336   9.434   2.852
  537SOL     OW12289   9.366   6.222   0.928
  537SOL    HW112290   9.439   6.287   0.909
  537SOL    HW212291   9.380   6.181   1.019
  538SOL     OW12292   1.688   5.976   2.049
  538SOL    HW112293   1.766   6.035   2.029
  538SOL    HW212294   1.615   6.030   2.090
  539SOL     OW12295   0.949   1.487   3.877
  539SOL    HW112296   1.025   1.524   3.931
  539SOL    HW212297   0.942   1.537   3.791
  540SOL     OW12298   7.885   9.160   1.075
  540SOL    HW112299   7.901   9.092   1.146
  540SOL    HW212300   7.801   9.138   1.026
  541SOL     OW12301   0.933   0.878   3.515
  541SOL    HW112302   0.895   0.806   3.573
  541SOL    HW212303   0.859   0.940   3.487
  542SOL     OW12304   5.278   8.340   4.354
  542SOL    HW112305   5.375   8.355   4.335
  542SOL    HW212306   5.232   8.429   4.357
  543SOL     OW12307   8.175   0.512   2.410
  543SOL    HW112308   8.189   0.474   2.501
  543SOL    HW212309   8.243   0.584   2.393
  544SOL     OW12310   0.804   2.366   1.210
  544SOL    HW112311   0.811   2.416   1.296
  544SOL    HW212312   0.733   2.407   1.154
  545SOL     OW12313   9.600   3.745   2.856
  545SOL    HW112314   9.657   3.673   2.896
  545SOL    HW212315   9.589   3.820   2.921
  546SOL     OW12316   1.960   1.504   1.649
  546SOL    HW112317   1.946   1.428   1.713
  546SOL    HW212318   1.912   1.486   1.564
  547SOL     OW12319   9.498   9.388   3.351
  547SOL    HW112320   9.578   9.417   3.405
  547SOL    HW212321   9.494   9.288   3.351
  548SOL     OW12322   3.715   0.859   3.128
  548SOL    HW112323   3.629   0.910   3.125
  548SOL    HW212324   3.754   0.864   3.220
  549SOL     OW12325   2.580   4.145   2.079
  549SOL    HW112326   2.539   4.087   2.150
  549SOL    HW212327   2.644   4.209   2.122
  550SOL     OW12328   4.040   1.236   2.562
  550SOL    HW112329   4.060   1.206   2.469
  550SOL    HW212330   3.946   1.212   2.585
  551SOL     OW12331   7.696   7.084   3.988
  551SOL    HW112332   7.718   7.144   4.065
  551SOL    HW212333   7.735   6.994   4.004
  552SOL     OW12334   4.564   4.076   1.042
  552SOL    HW112335   4.648   4.077   1.095
  552SOL    HW212336   4.546   4.168   1.007
  553SOL     OW12337   0.636   6.813   2.093
  553SOL    HW112338   0.641   6.905   2.132
  553SOL    HW212339   0.601   6.818   1.999
  554SOL     OW12340   2.013   9.154   3.235
  554SOL    HW112341   2.064   9.159   3.149
  554SOL    HW212342   1.995   9.058   3.257
  555SOL     OW12343   9.304   0.472   3.374
  555SOL    HW112344   9.209   0.475   3.342
  555SOL    HW212345   9.327   0.558   3.420
  556SOL     OW12346   2.861   7.491   0.954
  556SOL    HW112347   2.832   7.586   0.964
  556SOL    HW212348   2.924   7.468   1.028
  557SOL     OW12349   6.312   8.018   1.829
  557SOL    HW112350   6.268   8.065   1.905
  557SOL    HW212351   6.255   8.026   1.747
  558SOL     OW12352   8.232   7.452   3.827
  558SOL    HW112353   8.226   7.501   3.739
  558SOL    HW212354   8.151   7.396   3.839
  559SOL     OW12355   8.426   7.278   1.722
  559SOL    HW112356   8.329   7.296   1.702
  559SOL    HW212357   8.459   7.343   1.790
  560SOL     OW12358   2.558   2.394   3.656
  560SOL    HW112359   2.486   2.460   3.634
  560SOL    HW212360   2.532   2.345   3.739
  561SOL     OW12361   8.506   0.419   2.429
  561SOL    HW112362   8.604   0.398   2.425
  561SOL    HW212363   8.457   0.339   2.465
  562SOL     OW12364   5.728   1.429   1.947
  562SOL    HW112365   5.827   1.441   1.942
  562SOL    HW212366   5.690   1.420   1.855
  563SOL     OW12367   0.378   2.696   2.345
  563SOL    HW112368   0.370   2.647   2.432
  563SOL    HW212369   0.290   2.696   2.298
  564SOL     OW12370   1.382   8.123   1.801
  564SOL    HW112371   1.468   8.165   1.771
  564SOL    HW212372   1.325   8.192   1.846
  565SOL     OW12373   0.600   1.955   4.331
  565SOL    HW112374   0.556   1.865   4.339
  565SOL    HW212375   0.602   1.998   4.421
  566SOL     OW12376   0.923   5.243   3.835
  566SOL    HW112377   0.919   5.227   3.737
  566SOL    HW212378   0.947   5.338   3.853
  567SOL     OW12379   2.158   9.621   2.695
  567SOL    HW112380   2.154   9.569   2.610
  567SOL    HW212381   2.187   9.715   2.676
  568SOL     OW12382   0.309   6.112   1.470
  568SOL    HW112383   0.350   6.090   1.382
  568SOL    HW212384   0.333   6.041   1.537
  569SOL     OW12385   5.553   7.962   1.958
  569SOL    HW112386   5.460   7.992   1.940
  569SOL    HW212387   5.552   7.868   1.990
  570SOL     OW12388   9.268   3.208   1.446
  570SOL    HW112389   9.352   3.190   1.396
  570SOL    HW212390   9.287   3.272   1.521
  571SOL     OW12391   0.274   3.180   2.301
  571SOL    HW112392   0.216   3.108   2.338
  571SOL    HW212393   0.340   3.140   2.237
  572SOL     OW12394   9.962   6.251   3.583
  572SOL    HW112395   9.886   6.206   3.631
  572SOL    HW212396   9.997   6.190   3.512
  573SOL     OW12397   4.049   2.233   2.719
  573SOL    HW112398   4.130   2.244   2.776
  573SOL    HW212399   4.074   2.191   2.632
  574SOL     OW12400   1.744   2.683   1.677
  574SOL    HW112401   1.757   2.776   1.643
  574SOL    HW212402   1.648   2.671   1.705
  575SOL     OW12403   4.040   1.998   1.509
  575SOL    HW112404   4.086   1.945   1.437
  575SOL    HW212405   4.109   2.044   1.565
  576SOL     OW12406   7.687   1.319   1.001
  576SOL    HW112407   7.785   1.325   0.982
  576SOL    HW212408   7.638   1.294   0.918
  577SOL     OW12409   9.942   8.526   2.826
  577SOL    HW112410   0.038   8.546   2.844
  577SOL    HW212411   9.915   8.568   2.739
  578SOL     OW12412   0.381   8.130   1.739
  578SOL    HW112413   0.461   8.155   1.794
  578SOL    HW212414   0.358   8.205   1.677
  579SOL     OW12415   7.428   6.695   4.104
  579SOL    HW112416   7.339   6.739   4.112
  579SOL    HW212417   7.497   6.750   4.152
  580SOL     OW12418   2.065   6.221   4.272
  580SOL    HW112419   2.080   6.194   4.178
  580SOL    HW212420   2.121   6.164   4.333
  581SOL     OW12421   6.523   4.004   0.174
  581SOL    HW112422   6.460   4.075   0.204
  581SOL    HW212423   6.552   4.022   0.080
  582SOL     OW12424   0.599   9.681   3.267
  582SOL    HW112425   0.558   9.628   3.341
  582SOL    HW212426   0.608   9.624   3.186
  583SOL     OW12427   3.550   1.403   1.425
  583SOL    HW112428   3.644   1.399   1.391
  583SOL    HW212429   3.502   1.319   1.398
  584SOL     OW12430   9.641   4.136   2.015
  584SOL    HW112431   9.619   4.111   2.109
  584SOL    HW212432   9.665   4.053   1.963
  585SOL     OW12433   2.001   3.897   3.033
  585SOL    HW112434   2.010   3.859   3.125
  585SOL    HW212435   2.041   3.988   3.031
  586SOL     OW12436   1.082   6.586   2.192
  586SOL    HW112437   0.991   6.574   2.153
  586SOL    HW212438   1.110   6.681   2.182
  587SOL     OW12439   8.123   0.627   2.097
  587SOL    HW112440   8.100   0.671   2.010
  587SOL    HW212441   8.108   0.529   2.090
  588SOL     OW12442   5.764   0.931   2.060
  588SOL    HW112443   5.753   0.931   1.961
  588SOL    HW212444   5.861   0.915   2.082
  589SOL     OW12445   9.586   6.220   2.537
  589SOL    HW112446   9.553   6.233   2.444
  589SOL    HW212447   9.599   6.309   2.581
  590SOL     OW12448   3.188   0.356   3.058
  590SOL    HW112449   3.212   0.295   3.134
  590SOL    HW212450   3.267   0.413   3.035
  591SOL     OW12451   6.282   1.182   4.364
  591SOL    HW112452   6.371   1.220   4.337
  591SOL    HW212453   6.229   1.251   4.412
  592SOL     OW12454   5.042   3.470   0.599
  592SOL    HW112455   5.071   3.538   0.666
  592SOL    HW212456   4.942   3.467   0.594
  593SOL     OW12457   0.708   8.468   2.881
  593SOL    HW112458   0.625   8.414   2.869
  593SOL    HW212459   0.714   8.500   2.976
  594SOL     OW12460   7.990   2.185   4.013
  594SOL    HW112461   8.029   2.274   4.038
  594SOL    HW212462   7.923   2.158   4.083
  595SOL     OW12463   2.865   3.827   0.972
  595SOL    HW112464   2.938   3.847   1.037
  595SOL    HW212465   2.786   3.790   1.021
  596SOL     OW12466   5.136   2.980   3.577
  596SOL    HW112467   5.114   2.929   3.660
  596SOL    HW212468   5.130   2.918   3.498
  597SOL     OW12469   4.132   1.309   3.182
  597SOL    HW112470   4.139   1.211   3.168
  597SOL    HW212471   4.090   1.351   3.101
  598SOL     OW12472   0.181   4.151   0.716
  598SOL    HW112473   0.255   4.206   0.678
  598SOL    HW212474   0.214   4.104   0.799
  599SOL     OW12475   6.902   6.331   2.543
  599SOL    HW112476   6.814   6.337   2.588
  599SOL    HW212477   6.975   6.342   2.610
  600SOL     OW12478   0.114   5.533   0.783
  600SOL    HW112479   0.076   5.443   0.760
  600SOL    HW212480   0.076   5.564   0.870
  601SOL     OW12481   7.357   8.401   1.674
  601SOL    HW112482   7.433   8.465   1.673
  601SOL    HW212483   7.351   8.358   1.764
  602SOL     OW12484   2.268   3.033   3.723
  602SOL    HW112485   2.332   3.008   3.795
  602SOL    HW212486   2.187   2.974   3.727
  603SOL     OW12487   5.993   1.951   2.511
  603SOL    HW112488   5.982   2.017   2.586
  603SOL    HW212489   5.970   1.995   2.424
  604SOL     OW12490   1.018   2.383   2.630
  604SOL    HW112491   0.934   2.382   2.684
  604SOL    HW212492   1.095   2.407   2.690
  605SOL     OW12493   8.722   1.473   0.172
  605SOL    HW112494   8.793   1.482   0.242
  605SOL    HW212495   8.709   1.376   0.150
  606SOL     OW12496   0.456   6.486   0.900
  606SOL    HW112497   0.395   6.468   0.977
  606SOL    HW212498   0.513   6.566   0.920
  607SOL     OW12499   8.234   9.337   3.929
  607SOL    HW112500   8.155   9.378   3.884
  607SOL    HW212501   8.290   9.290   3.861
  608SOL     OW12502   7.130   7.160   3.934
  608SOL    HW112503   7.102   7.147   4.029
  608SOL    HW212504   7.154   7.071   3.894
  609SOL     OW12505   8.404   9.861   3.449
  609SOL    HW112506   8.477   9.795   3.430
  609SOL    HW212507   8.437   9.954   3.432
  610SOL     OW12508   3.738   6.203   3.560
  610SOL    HW112509   3.756   6.301   3.566
  610SOL    HW212510   3.702   6.170   3.647
  611SOL     OW12511   9.808   4.821   1.088
  611SOL    HW112512   9.723   4.873   1.083
  611SOL    HW212513   9.788   4.723   1.090
  612SOL     OW12514   8.049   4.986   1.747
  612SOL    HW112515   8.023   5.070   1.700
  612SOL    HW212516   8.060   4.912   1.680
  613SOL     OW12517   1.346   9.125   3.252
  613SOL    HW112518   1.257   9.171   3.257
  613SOL    HW212519   1.404   9.156   3.328
  614SOL     OW12520   7.999   3.283   0.652
  614SOL    HW112521   7.969   3.220   0.581
  614SOL    HW212522   7.967   3.251   0.741
  615SOL     OW12523   4.162   0.592   2.180
  615SOL    HW112524   4.194   0.686   2.165
  615SOL    HW212525   4.062   0.590   2.174
  616SOL     OW12526   9.567   5.746   0.854
  616SOL    HW112527   9.500   5.720   0.784
  616SOL    HW212528   9.638   5.675   0.860
  617SOL     OW12529   8.026   3.261   3.233
  617SOL    HW112530   8.109   3.253   3.177
  617SOL    HW212531   8.006   3.358   3.249
  618SOL     OW12532   5.356   3.530   0.245
  618SOL    HW112533   5.429   3.586   0.285
  618SOL    HW212534   5.269   3.553   0.289
  619SOL     OW12535   9.255   4.569   3.050
  619SOL    HW112536   9.329   4.584   3.115
  619SOL    HW212537   9.180   4.631   3.071
  620SOL     OW12538   0.664   1.302   0.285
  620SOL    HW112539   0.763   1.290   0.284
  620SOL    HW212540   0.640   1.378   0.346
  621SOL     OW12541   8.357   1.179   2.789
  621SOL    HW112542   8.322   1.214   2.702
  621SOL    HW212543   8.453   1.205   2.799
  622SOL     OW12544   9.285   4.192   0.561
  622SOL    HW112545   9.186   4.185   0.573
  622SOL    HW212546   9.329   4.110   0.598
  623SOL     OW12547   1.583   8.169   0.893
  623SOL    HW112548   1.594   8.240   0.963
  623SOL    HW212549   1.569   8.081   0.938
  624SOL     OW12550   1.384   4.864   4.417
  624SOL    HW112551   1.320   4.930   4.377
  624SOL    HW212552   1.343   4.822   4.497
  625SOL     OW12553   6.525   9.608   1.924
  625SOL    HW112554   6.475   9.623   2.009
  625SOL    HW212555   6.494   9.674   1.855
  626SOL     OW12556   1.636   7.595   3.510
  626SOL    HW112557   1.648   7.530   3.435
  626SOL    HW212558   1.545   7.636   3.504
  627SOL     OW12559   9.323   1.433   0.093
  627SOL    HW112560   9.244   1.488   0.122
  627SOL    HW212561   9.321   1.345   0.140
  628SOL     OW12562   9.903   8.874   0.670
  628SOL    HW112563   9.842   8.807   0.629
  628SOL    HW212564   9.932   8.842   0.761
  629SOL     OW12565   4.177   9.111   3.862
  629SOL    HW112566   4.214   9.022   3.835
  629SOL    HW212567   4.090   9.126   3.815
  630SOL     OW12568   9.790   5.945   0.510
  630SOL    HW112569   9.725   5.886   0.462
  630SOL    HW212570   9.760   5.959   0.604
  631SOL     OW12571   3.731   0.699   4.246
  631SOL    HW112572   3.669   0.764   4.291
  631SOL    HW212573   3.817   0.745   4.225
  632SOL     OW12574   2.355   0.655   1.776
  632SOL    HW112575   2.388   0.725   1.713
  632SOL    HW212576   2.286   0.598   1.730
  633SOL     OW12577   8.234   7.607   2.903
  633SOL    HW112578   8.208   7.626   2.998
  633SOL    HW212579   8.286   7.522   2.900
  634SOL     OW12580   9.472   7.058   0.801
  634SOL    HW112581   9.472   6.983   0.867
  634SOL    HW212582   9.422   7.030   0.719
  635SOL     OW12583   5.273   0.861   2.828
  635SOL    HW112584   5.241   0.776   2.871
  635SOL    HW212585   5.194   0.914   2.798
  636SOL     OW12586   0.185   5.293   1.317
  636SOL    HW112587   0.091   5.259   1.306
  636SOL    HW212588   0.222   5.319   1.228
  637SOL     OW12589   8.727   0.874   2.243
  637SOL    HW112590   8.741   0.776   2.258
  637SOL    HW212591   8.654   0.906   2.303
  638SOL     OW12592   7.494   5.326   4.246
  638SOL    HW112593   7.486   5.296   4.151
  638SOL    HW212594   7.418   5.388   4.268
  639SOL     OW12595   8.876   8.715   1.738
  639SOL    HW112596   8.854   8.780   1.811
  639SOL    HW212597   8.846   8.753   1.650
  640SOL     OW12598   2.600   8.289   2.627
  640SOL    HW112599   2.555   8.219   2.572
  640SOL    HW212600   2.564   8.379   2.603
  641SOL     OW12601   8.665   2.276   3.686
  641SOL    HW112602   8.620   2.230   3.610
  641SOL    HW212603   8.755   2.235   3.702
  642SOL     OW12604   3.875   6.308   0.811
  642SOL    HW112605   3.802   6.240   0.803
  642SOL    HW212606   3.878   6.363   0.727
  643SOL     OW12607   8.214   4.422   2.339
  643SOL    HW112608   8.184   4.468   2.423
  643SOL    HW212609   8.309   4.447   2.321
  644SOL     OW12610   7.630   0.392   4.020
  644SOL    HW112611   7.687   0.320   4.060
  644SOL    HW212612   7.534   0.374   4.040
  645SOL     OW12613   0.642   6.996   0.646
  645SOL    HW112614   0.683   6.906   0.625
  645SOL    HW212615   0.707   7.068   0.619
  646SOL     OW12616   1.957   0.958   2.848
  646SOL    HW112617   2.046   1.003   2.846
  646SOL    HW212618   1.904   0.992   2.926
  647SOL     OW12619   1.712   4.260   4.080
  647SOL    HW112620   1.740   4.354   4.062
  647SOL    HW212621   1.788   4.198   4.059
  648SOL     OW12622   0.228   2.497   3.765
  648SOL    HW112623   0.170   2.480   3.845
  648SOL    HW212624   0.173   2.536   3.692
  649SOL     OW12625   4.647   3.336   2.660
  649SOL    HW112626   4.659   3.240   2.684
  649SOL    HW212627   4.706   3.393   2.716
  650SOL     OW12628   4.834   7.925   2.215
  650SOL    HW112629   4.767   7.937   2.288
  650SOL    HW212630   4.926   7.936   2.253
  651SOL     OW12631   9.409   4.896   3.380
  651SOL    HW112632   9.318   4.867   3.350
  651SOL    HW212633   9.460   4.817   3.413
  652SOL     OW12634   0.584   7.890   3.537
  652SOL    HW112635   0.524   7.966   3.511
  652SOL    HW212636   0.679   7.921   3.534
  653SOL     OW12637   9.726   0.887   4.315
  653SOL    HW112638   9.627   0.887   4.299
  653SOL    HW212639   9.749   0.956   4.384
  654SOL     OW12640   1.953   0.026   3.503
  654SOL    HW112641   1.874   9.972   3.473
  654SOL    HW212642   1.961   0.108   3.447
  655SOL     OW12643   2.900   9.395   2.027
  655SOL    HW112644   2.893   9.490   1.997
  655SOL    HW212645   2.874   9.389   2.124
  656SOL     OW12646   4.712   1.406   4.206
  656SOL    HW112647   4.767   1.427   4.286
  656SOL    HW212648   4.721   1.309   4.183
  657SOL     OW12649   7.034   0.248   4.263
  657SOL    HW112650   6.960   0.232   4.198
  657SOL    HW212651   7.061   0.344   4.261
  658SOL     OW12652   4.165   4.680   1.474
  658SOL    HW112653   4.200   4.770   1.500
  658SOL    HW212654   4.077   4.691   1.428
  659SOL     OW12655   8.431   2.724   1.706
  659SOL    HW112656   8.426   2.823   1.692
  659SOL    HW212657   8.507   2.702   1.767
  660SOL     OW12658   2.306   5.003   4.197
  660SOL    HW112659   2.370   4.930   4.176
  660SOL    HW212660   2.353   5.091   4.193
  661SOL     OW12661   9.557   7.916   1.847
  661SOL    HW112662   9.612   7.907   1.930
  661SOL    HW212663   9.603   7.978   1.783
  662SOL     OW12664   7.463   8.044   1.858
  662SOL    HW112665   7.528   8.011   1.927
  662SOL    HW212666   7.508   8.046   1.769
  663SOL     OW12667   4.581   6.392   1.722
  663SOL    HW112668   4.621   6.339   1.796
  663SOL    HW212669   4.635   6.474   1.706
  664SOL     OW12670   9.553   4.814   1.328
  664SOL    HW112671   9.518   4.870   1.403
  664SOL    HW212672   9.561   4.870   1.246
  665SOL     OW12673   8.872   1.895   3.681
  665SOL    HW112674   8.865   1.795   3.683
  665SOL    HW212675   8.814   1.931   3.609
  666SOL     OW12676   0.786   6.850   1.766
  666SOL    HW112677   0.791   6.883   1.672
  666SOL    HW212678   0.690   6.841   1.794
  667SOL     OW12679   4.382   6.732   1.195
  667SOL    HW112680   4.350   6.715   1.101
  667SOL    HW212681   4.376   6.647   1.248
  668SOL     OW12682   8.664   3.545   4.400
  668SOL    HW112683   8.754   3.503   4.392
  668SOL    HW212684   8.610   3.496   4.468
  669SOL     OW12685   1.223   3.253   2.987
  669SOL    HW112686   1.182   3.217   2.903
  669SOL    HW212687   1.267   3.341   2.968
  670SOL     OW12688   7.153   7.163   2.238
  670SOL    HW112689   7.142   7.092   2.168
  670SOL    HW212690   7.072   7.222   2.237
  671SOL     OW12691   3.477   9.918   4.164
  671SOL    HW112692   3.464   9.828   4.206
  671SOL    HW212693   3.539   9.910   4.087
  672SOL     OW12694   1.115   1.280   3.291
  672SOL    HW112695   1.117   1.337   3.209
  672SOL    HW212696   1.056   1.323   3.360
  673SOL     OW12697   8.907   1.495   0.368
  673SOL    HW112698   8.930   1.417   0.427
  673SOL    HW212699   8.902   1.578   0.423
  674SOL     OW12700   3.779   8.613   0.137
  674SOL    HW112701   3.808   8.575   0.225
  674SOL    HW212702   3.846   8.590   0.067
  675SOL     OW12703   4.473   0.714   2.971
  675SOL    HW112704   4.407   0.717   3.047
  675SOL    HW212705   4.563   0.691   3.007
  676SOL     OW12706   2.016   0.033   1.398
  676SOL    HW112707   2.097   0.084   1.428
  676SOL    HW212708   1.977   0.078   1.318
  677SOL     OW12709   8.760   3.695   2.917
  677SOL    HW112710   8.726   3.789   2.926
  677SOL    HW212711   8.686   3.631   2.933
  678SOL     OW12712   9.802   0.799   1.422
  678SOL    HW112713   9.783   0.704   1.396
  678SOL    HW212714   9.778   0.813   1.518
  679SOL     OW12715   1.162   2.098   2.631
  679SOL    HW112716   1.245   2.145   2.602
  679SOL    HW212717   1.087   2.164   2.640
  680SOL     OW12718   5.205   0.874   0.501
  680SOL    HW112719   5.279   0.940   0.515
  680SOL    HW212720   5.211   0.802   0.571
  681SOL     OW12721   1.972   3.924   2.298
  681SOL    HW112722   1.910   3.859   2.254
  681SOL    HW212723   1.956   3.924   2.397
  682SOL     OW12724   3.663   5.055   1.552
  682SOL    HW112725   3.648   4.976   1.611
  682SOL    HW212726   3.590   5.061   1.484
  683SOL     OW12727   3.100   8.482   2.966
  683SOL    HW112728   3.101   8.441   2.875
  683SOL    HW212729   3.079   8.411   3.034
  684SOL     OW12730   5.117   2.793   2.279
  684SOL    HW112731   5.121   2.740   2.194
  684SOL    HW212732   5.056   2.871   2.267
  685SOL     OW12733   8.738   9.313   1.862
  685SOL    HW112734   8.731   9.411   1.845
  685SOL    HW212735   8.804   9.297   1.936
  686SOL     OW12736   2.467   5.583   1.447
  686SOL    HW112737   2.481   5.561   1.350
  686SOL    HW212738   2.393   5.649   1.455
  687SOL     OW12739   0.328   2.093   1.886
  687SOL    HW112740   0.297   2.180   1.925
  687SOL    HW212741   0.287   2.081   1.795
  688SOL     OW12742   8.430   2.224   3.850
  688SOL    HW112743   8.516   2.247   3.805
  688SOL    HW212744   8.418   2.282   3.931
  689SOL     OW12745   2.065   9.444   0.156
  689SOL    HW112746   2.039   9.350   0.179
  689SOL    HW212747   2.100   9.490   0.238
  690SOL     OW12748   0.987   5.922   4.317
  690SOL    HW112749   1.035   5.876   4.392
  690SOL    HW212750   1.012   6.019   4.316
  691SOL     OW12751   2.975   2.546   0.599
  691SOL    HW112752   2.883   2.518   0.625
  691SOL    HW212753   3.007   2.619   0.659
  692SOL     OW12754   3.074   5.359   1.219
  692SOL    HW112755   3.013   5.287   1.184
  692SOL    HW212756   3.019   5.434   1.256
  693SOL     OW12757   6.497   8.373   3.343
  693SOL    HW112758   6.431   8.335   3.279
  693SOL    HW212759   6.512   8.308   3.418
  694SOL     OW12760   3.417   8.253   0.063
  694SOL    HW112761   3.453   8.346   0.062
  694SOL    HW212762   3.490   8.190   0.090
  695SOL     OW12763   9.772   2.775   1.637
  695SOL    HW112764   9.737   2.781   1.543
  695SOL    HW212765   9.742   2.855   1.689
  696SOL     OW12766   9.541   7.701   1.383
  696SOL    HW112767   9.635   7.709   1.350
  696SOL    HW212768   9.540   7.713   1.482
  697SOL     OW12769   8.182   2.685   2.309
  697SOL    HW112770   8.234   2.613   2.354
  697SOL    HW212771   8.084   2.673   2.329
  698SOL     OW12772   2.177   9.108   2.998
  698SOL    HW112773   2.252   9.164   3.035
  698SOL    HW212774   2.167   9.127   2.900
  699SOL     OW12775   2.098   9.421   2.878
  699SOL    HW112776   2.118   9.450   2.971
  699SOL    HW212777   2.129   9.491   2.814
  700SOL     OW12778   2.795   9.780   1.706
  700SOL    HW112779   2.859   9.842   1.660
  700SOL    HW212780   2.701   9.813   1.692
  701SOL     OW12781   2.237   8.717   1.933
  701SOL    HW112782   2.258   8.656   1.856
  701SOL    HW212783   2.317   8.727   1.991
  702SOL     OW12784   8.747   7.868   4.365
  702SOL    HW112785   8.833   7.820   4.353
  702SOL    HW212786   8.671   7.806   4.345
  703SOL     OW12787   4.809   8.847   3.119
  703SOL    HW112788   4.877   8.904   3.165
  703SOL    HW212789   4.718   8.888   3.131
  704SOL     OW12790   0.392   3.074   1.227
  704SOL    HW112791   0.314   3.096   1.168
  704SOL    HW212792   0.443   2.998   1.187
  705SOL     OW12793   2.090   0.448   0.836
  705SOL    HW112794   2.136   0.481   0.754
  705SOL    HW212795   2.158   0.425   0.906
  706SOL     OW12796   9.465   9.428   2.226
  706SOL    HW112797   9.391   9.481   2.268
  706SOL    HW212798   9.524   9.489   2.174
  707SOL     OW12799   0.345   3.761   3.416
  707SOL    HW112800   0.294   3.808   3.344
  707SOL    HW212801   0.325   3.803   3.504
  708SOL     OW12802   1.221   4.254   3.322
  708SOL    HW112803   1.247   4.243   3.418
  708SOL    HW212804   1.162   4.333   3.311
  709SOL     OW12805   8.875   0.385   1.572
  709SOL    HW112806   8.958   0.441   1.582
  709SOL    HW212807   8.902   0.291   1.553
  710SOL     OW12808   7.682   7.702   2.156
  710SOL    HW112809   7.625   7.632   2.198
  710SOL    HW212810   7.731   7.662   2.079
  711SOL     OW12811   9.656   2.510   3.945
  711SOL    HW112812   9.605   2.475   3.866
  711SOL    HW212813   9.743   2.548   3.913
  712SOL     OW12814   7.201   8.646   1.330
  712SOL    HW112815   7.286   8.603   1.303
  712SOL    HW212816   7.178   8.619   1.424
  713SOL     OW12817   4.540   2.681   4.095
  713SOL    HW112818   4.543   2.774   4.059
  713SOL    HW212819   4.476   2.627   4.040
  714SOL     OW12820   5.441   8.462   3.983
  714SOL    HW112821   5.539   8.469   3.964
  714SOL    HW212822   5.414   8.366   3.989
  715SOL     OW12823   7.741   2.282   0.668
  715SOL    HW112824   7.751   2.376   0.700
  715SOL    HW212825   7.749   2.280   0.568
  716SOL     OW12826   8.998   8.388   0.982
  716SOL    HW112827   9.076   8.449   0.975
  716SOL    HW212828   8.956   8.397   1.073
  717SOL     OW12829   3.446   5.079   1.390
  717SOL    HW112830   3.457   5.149   1.319
  717SOL    HW212831   3.378   5.110   1.457
  718SOL     OW12832   3.241   0.175   1.244
  718SOL    HW112833   3.167   0.121   1.206
  718SOL    HW212834   3.203   0.252   1.295
  719SOL     OW12835   3.578   1.815   2.099
  719SOL    HW112836   3.594   1.741   2.164
  719SOL    HW212837   3.515   1.882   2.139
  720SOL     OW12838   7.549   3.417   1.237
  720SOL    HW112839   7.555   3.513   1.264
  720SOL    HW212840   7.579   3.359   1.313
  721SOL     OW12841   9.674   6.449   2.295
  721SOL    HW112842   9.619   6.530   2.276
  721SOL    HW212843   9.616   6.367   2.291
  722SOL     OW12844   9.283   2.943   2.092
  722SOL    HW112845   9.319   2.903   2.008
  722SOL    HW212846   9.342   2.917   2.169
  723SOL     OW12847   0.655   0.039   1.145
  723SOL    HW112848   0.560   0.069   1.154
  723SOL    HW212849   0.674   9.969   1.213
  724SOL     OW12850   9.141   4.566   1.987
  724SOL    HW112851   9.072   4.517   1.933
  724SOL    HW212852   9.099   4.647   2.027
  725SOL     OW12853   1.638   8.882   1.752
  725SOL    HW112854   1.645   8.787   1.723
  725SOL    HW212855   1.664   8.942   1.676
  726SOL     OW12856   9.281   9.211   2.963
  726SOL    HW112857   9.331   9.155   2.897
  726SOL    HW212858   9.195   9.165   2.986
  727SOL     OW12859   0.213   9.728   3.200
  727SOL    HW112860   0.269   9.691   3.126
  727SOL    HW212861   0.117   9.729   3.173
  728SOL     OW12862   2.410   1.051   4.097
  728SOL    HW112863   2.370   1.086   4.182
  728SOL    HW212864   2.375   1.103   4.020
  729SOL     OW12865   4.403   3.816   1.434
  729SOL    HW112866   4.323   3.762   1.460
  729SOL    HW212867   4.381   3.872   1.354
  730SOL     OW12868   4.767   3.184   1.099
  730SOL    HW112869   4.835   3.254   1.077
  730SOL    HW212870   4.802   3.095   1.072
  731SOL     OW12871   4.395   3.466   3.415
  731SOL    HW112872   4.351   3.442   3.329
  731SOL    HW212873   4.329   3.461   3.490
  732SOL     OW12874   0.987   1.947   3.784
  732SOL    HW112875   1.052   1.874   3.763
  732SOL    HW212876   1.008   1.986   3.874
  733SOL     OW12877   2.264   3.293   2.566
  733SOL    HW112878   2.340   3.332   2.513
  733SOL    HW212879   2.284   3.304   2.664
  734SOL     OW12880   2.205   9.964   0.542
  734SOL    HW112881   2.143   9.984   0.619
  734SOL    HW212882   2.294   9.936   0.578
  735SOL     OW12883   0.213   1.398   2.294
  735SOL    HW112884   0.135   1.444   2.251
  735SOL    HW212885   0.242   1.449   2.375
  736SOL     OW12886   7.569   4.857   0.883
  736SOL    HW112887   7.511   4.790   0.835
  736SOL    HW212888   7.526   4.947   0.878
  737SOL     OW12889   7.918   8.749   3.533
  737SOL    HW112890   7.935   8.705   3.622
  737SOL    HW212891   8.004   8.756   3.483
  738SOL     OW12892   3.919   8.764   0.974
  738SOL    HW112893   3.863   8.783   1.055
  738SOL    HW212894   3.907   8.838   0.907
  739SOL     OW12895   0.452   8.363   2.910
  739SOL    HW112896   0.404   8.293   2.964
  739SOL    HW212897   0.426   8.453   2.944
  740SOL     OW12898   5.154   4.334   0.309
  740SOL    HW112899   5.150   4.340   0.209
  740SOL    HW212900   5.061   4.330   0.346
  741SOL     OW12901   2.133   1.126   3.715
  741SOL    HW112902   2.189   1.168   3.787
  741SOL    HW212903   2.047   1.176   3.707
  742SOL     OW12904   8.613   3.510   2.249
  742SOL    HW112905   8.692   3.479   2.302
  742SOL    HW212906   8.644   3.561   2.169
  743SOL     OW12907   9.150   1.419   2.020
  743SOL    HW112908   9.208   1.370   1.954
  743SOL    HW212909   9.081   1.356   2.056
  744SOL     OW12910   0.724   2.035   3.743
  744SOL    HW112911   0.813   1.992   3.751
  744SOL    HW212912   0.727   2.126   3.784
  745SOL     OW12913   7.795   7.372   3.742
  745SOL    HW112914   7.777   7.428   3.823
  745SOL    HW212915   7.749   7.412   3.663
  746SOL     OW12916   2.482   4.642   3.797
  746SOL    HW112917   2.416   4.636   3.723
  746SOL    HW212918   2.572   4.613   3.764
  747SOL     OW12919   1.453   1.658   2.789
  747SOL    HW112920   1.434   1.690   2.881
  747SOL    HW212921   1.548   1.628   2.782
  748SOL     OW12922   0.717   3.742   0.675
  748SOL    HW112923   0.632   3.785   0.646
  748SOL    HW212924   0.771   3.806   0.729
  749SOL     OW12925   9.506   8.917   1.388
  749SOL    HW112926   9.415   8.876   1.376
  749SOL    HW212927   9.542   8.892   1.478
  750SOL     OW12928   9.707   5.631   3.793
  750SOL    HW112929   9.692   5.681   3.878
  750SOL    HW212930   9.715   5.534   3.812
  751SOL     OW12931   9.346   7.073   1.646
  751SOL    HW112932   9.265   7.127   1.625
  751SOL    HW212933   9.318   6.982   1.678
  752SOL     OW12934   8.765   6.003   0.991
  752SOL    HW112935   8.699   5.979   1.062
  752SOL    HW212936   8.851   5.955   1.008
  753SOL     OW12937   7.707   7.631   1.600
  753SOL    HW112938   7.626   7.651   1.655
  753SOL    HW212939   7.788   7.636   1.658
  754SOL     OW12940   9.828   5.540   4.283
  754SOL    HW112941   9.840   5.451   4.329
  754SOL    HW212942   9.897   5.550   4.212
  755SOL     OW12943   5.811   0.263   2.515
  755SOL    HW112944   5.793   0.184   2.573
  755SOL    HW212945   5.812   0.346   2.571
  756SOL     OW12946   1.824   6.885   1.523
  756SOL    HW112947   1.829   6.884   1.623
  756SOL    HW212948   1.736   6.847   1.493
  757SOL     OW12949   2.137   6.122   1.408
  757SOL    HW112950   2.158   6.042   1.351
  757SOL    HW212951   2.204   6.194   1.388
  758SOL     OW12952   4.911   8.104   1.780
  758SOL    HW112953   4.931   8.052   1.696
  758SOL    HW212954   4.877   8.194   1.755
  759SOL     OW12955   3.475   0.823   0.399
  759SOL    HW112956   3.455   0.854   0.492
  759SOL    HW212957   3.426   0.881   0.334
  760SOL     OW12958   3.788   6.416   1.825
  760SOL    HW112959   3.769   6.457   1.736
  760SOL    HW212960   3.887   6.417   1.841
  761SOL     OW12961   1.514   6.176   3.751
  761SOL    HW112962   1.524   6.276   3.750
  761SOL    HW212963   1.472   6.146   3.666
  762SOL     OW12964   1.915   9.567   3.764
  762SOL    HW112965   1.981   9.614   3.823
  762SOL    HW212966   1.872   9.492   3.814
  763SOL     OW12967   9.571   8.180   1.607
  763SOL    HW112968   9.644   8.119   1.637
  763SOL    HW212969   9.601   8.275   1.617
  764SOL     OW12970   7.376   8.679   3.912
  764SOL    HW112971   7.377   8.581   3.933
  764SOL    HW212972   7.295   8.721   3.951
  765SOL     OW12973   1.057   6.919   0.681
  765SOL    HW112974   1.032   6.824   0.662
  765SOL    HW212975   1.059   6.970   0.595
  766SOL     OW12976   1.436   6.002   3.201
  766SOL    HW112977   1.353   5.945   3.197
  766SOL    HW212978   1.410   6.098   3.194
  767SOL     OW12979   3.930   7.460   4.059
  767SOL    HW112980   4.001   7.530   4.063
  767SOL    HW212981   3.842   7.503   4.040
  768SOL     OW12982   0.011   5.358   3.470
  768SOL    HW112983   9.953   5.436   3.496
  768SOL    HW212984   0.072   5.386   3.397
  769SOL     OW12985   6.328   0.095   3.168
  769SOL    HW112986   6.241   0.144   3.177
  769SOL    HW212987   6.321   0.029   3.094
  770SOL     OW12988   4.273   0.079   2.356
  770SOL    HW112989   4.191   0.092   2.301
  770SOL    HW212990   4.350   0.126   2.313
  771SOL     OW12991   2.778   5.912   2.545
  771SOL    HW112992   2.771   5.993   2.487
  771SOL    HW212993   2.868   5.912   2.590
  772SOL     OW12994   1.861   3.043   0.221
  772SOL    HW112995   1.916   3.126   0.227
  772SOL    HW212996   1.899   2.974   0.283
  773SOL     OW12997   4.944   6.931   2.457
  773SOL    HW112998   4.848   6.924   2.485
  773SOL    HW212999   4.999   6.964   2.534
  774SOL     OW13000   4.364   8.261   0.624
  774SOL    HW113001   4.440   8.200   0.645
  774SOL    HW213002   4.378   8.349   0.670
  775SOL     OW13003   5.219   0.359   3.283
  775SOL    HW113004   5.193   0.289   3.216
  775SOL    HW213005   5.139   0.383   3.339
  776SOL     OW13006   8.628   7.136   3.709
  776SOL    HW113007   8.715   7.151   3.758
  776SOL    HW213008   8.555   7.185   3.757
  777SOL     OW13009   9.629   3.724   3.911
  777SOL    HW113010   9.714   3.770   3.938
  777SOL    HW213011   9.555   3.754   3.971
  778SOL     OW13012   7.049   7.170   2.805
  778SOL    HW113013   7.049   7.223   2.721
  778SOL    HW213014   7.001   7.083   2.791
  779SOL     OW13015   7.252   8.908   1.543
  779SOL    HW113016   7.155   8.887   1.555
  779SOL    HW213017   7.305   8.824   1.547
  780SOL     OW13018   8.984   0.426   0.147
  780SOL    HW113019   9.061   0.406   0.207
  780SOL    HW213020   8.927   0.344   0.138
  781SOL     OW13021   7.768   2.693   1.369
  781SOL    HW113022   7.853   2.640   1.371
  781SOL    HW213023   7.690   2.631   1.381
  782SOL     OW13024   4.483   9.017   4.070
  782SOL    HW113025   4.484   8.935   4.127
  782SOL    HW213026   4.400   9.070   4.091
  783SOL     OW13027   8.522   3.290   2.113
  783SOL    HW113028   8.500   3.325   2.022
  783SOL    HW213029   8.547   3.366   2.173
  784SOL     OW13030   5.066   8.027   1.990
  784SOL    HW113031   5.066   7.927   2.002
  784SOL    HW213032   5.001   8.051   1.918
  785SOL     OW13033   2.348   1.306   2.924
  785SOL    HW113034   2.429   1.249   2.940
  785SOL    HW213035   2.373   1.383   2.866
  786SOL     OW13036   5.923   7.219   3.853
  786SOL    HW113037   5.924   7.262   3.943
  786SOL    HW213038   5.832   7.229   3.813
  787SOL     OW13039   8.517   3.464   1.880
  787SOL    HW113040   8.433   3.502   1.841
  787SOL    HW213041   8.582   3.444   1.807
  788SOL     OW13042   4.356   1.244   1.664
  788SOL    HW113043   4.290   1.174   1.690
  788SOL    HW213044   4.415   1.209   1.592
  789SOL     OW13045   4.016   1.430   2.960
  789SOL    HW113046   3.979   1.521   2.973
  789SOL    HW213047   4.061   1.425   2.871
  790SOL     OW13048   4.824   1.592   2.976
  790SOL    HW113049   4.740   1.641   2.952
  790SOL    HW213050   4.902   1.641   2.939
  791SOL     OW13051   6.522   0.603   0.497
  791SOL    HW113052   6.609   0.642   0.528
  791SOL    HW213053   6.540   0.537   0.424
  792SOL     OW13054   3.652   8.479   1.179
  792SOL    HW113055   3.599   8.555   1.216
  792SOL    HW213056   3.615   8.393   1.213
  793SOL     OW13057   6.462   7.573   1.951
  793SOL    HW113058   6.367   7.569   1.920
  793SOL    HW213059   6.500   7.664   1.932
  794SOL     OW13060   3.328   2.048   1.392
  794SOL    HW113061   3.422   2.067   1.364
  794SOL    HW213062   3.328   2.013   1.486
  795SOL     OW13063   9.458   0.168   2.737
  795SOL    HW113064   9.442   0.073   2.763
  795SOL    HW213065   9.406   0.229   2.796
  796SOL     OW13066   1.781   8.566   1.214
  796SOL    HW113067   1.821   8.643   1.264
  796SOL    HW213068   1.761   8.492   1.279
  797SOL     OW13069   5.769   9.061   1.992
  797SOL    HW113070   5.745   9.085   2.086
  797SOL    HW213071   5.868   9.067   1.981
  798SOL     OW13072   8.172   2.916   2.905
  798SOL    HW113073   8.131   2.830   2.875
  798SOL    HW213074   8.225   2.956   2.830
  799SOL     OW13075   4.890   3.096   3.554
  799SOL    HW113076   4.985   3.066   3.563
  799SOL    HW213077   4.885   3.195   3.566
  800SOL     OW13078   4.344   7.195   2.462
  800SOL    HW113079   4.258   7.235   2.430
  800SOL    HW213080   4.327   7.135   2.539
  801SOL     OW13081   0.227   3.532   3.306
  801SOL    HW113082   0.138   3.530   3.353
  801SOL    HW213083   0.280   3.609   3.339
  802SOL     OW13084   8.396   8.339   3.315
  802SOL    HW113085   8.373   8.248   3.282
  802SOL    HW213086   8.346   8.358   3.400
  803SOL     OW13087   4.452   9.869   2.308
  803SOL    HW113088   4.374   9.927   2.335
  803SOL    HW213089   4.532   9.894   2.363
  804SOL     OW13090   2.717   3.870   2.558
  804SOL    HW113091   2.687   3.812   2.634
  804SOL    HW213092   2.723   3.815   2.475
  805SOL     OW13093   2.624   4.242   0.656
  805SOL    HW113094   2.617   4.148   0.622
  805SOL    HW213095   2.701   4.250   0.718
  806SOL     OW13096   2.236   6.066   0.614
  806SOL    HW113097   2.255   6.093   0.519
  806SOL    HW213098   2.222   6.148   0.669
  807SOL     OW13099   3.087   1.816   3.469
  807SOL    HW113100   3.033   1.742   3.507
  807SOL    HW213101   3.027   1.887   3.434
  808SOL     OW13102   1.074   8.287   3.737
  808SOL    HW113103   1.071   8.245   3.827
  808SOL    HW213104   1.169   8.301   3.709
  809SOL     OW13105   4.424   4.304   2.081
  809SOL    HW113106   4.418   4.204   2.081
  809SOL    HW213107   4.515   4.333   2.110
  810SOL     OW13108   4.650   9.101   4.446
  810SOL    HW113109   4.579   9.050   4.494
  810SOL    HW213110   4.614   9.190   4.417
  811SOL     OW13111   8.279   9.496   1.275
  811SOL    HW113112   8.372   9.478   1.306
  811SOL    HW213113   8.263   9.449   1.188
  812SOL     OW13114   7.980   1.868   0.827
  812SOL    HW113115   8.078   1.863   0.844
  812SOL    HW213116   7.953   1.964   0.815
  813SOL     OW13117   7.600   1.025   1.209
  813SOL    HW113118   7.502   1.031   1.228
  813SOL    HW213119   7.647   1.100   1.256
  814SOL     OW13120   9.156   0.852   3.658
  814SOL    HW113121   9.098   0.844   3.739
  814SOL    HW213122   9.243   0.894   3.683
  815SOL     OW13123   0.332   7.268   0.218
  815SOL    HW113124   0.389   7.348   0.199
  815SOL    HW213125   0.235   7.291   0.205
  816SOL     OW13126   5.850   9.473   1.929
  816SOL    HW113127   5.807   9.444   1.844
  816SOL    HW213128   5.904   9.397   1.966
  817SOL     OW13129   0.148   5.103   3.831
  817SOL    HW113130   0.190   5.021   3.791
  817SOL    HW213131   0.064   5.124   3.782
  818SOL     OW13132   2.409   5.057   2.621
  818SOL    HW113133   2.434   5.043   2.525
  818SOL    HW213134   2.321   5.013   2.639
  819SOL     OW13135   9.089   1.182   3.181
  819SOL    HW113136   9.086   1.084   3.199
  819SOL    HW213137   9.051   1.232   3.258
  820SOL     OW13138   9.428   1.416   3.305
  820SOL    HW113139   9.468   1.417   3.213
  820SOL    HW213140   9.466   1.340   3.357
  821SOL     OW13141   7.630   1.508   2.366
  821SOL    HW113142   7.554   1.569   2.345
  821SOL    HW213143   7.671   1.533   2.454
  822SOL     OW13144   4.963   0.660   1.420
  822SOL    HW113145   4.962   0.674   1.519
  822SOL    HW213146   4.990   0.566   1.400
  823SOL     OW13147   7.762   2.956   0.833
  823SOL    HW113148   7.683   2.895   0.841
  823SOL    HW213149   7.818   2.928   0.755
  824SOL     OW13150   9.491   1.396   3.793
  824SOL    HW113151   9.551   1.334   3.744
  824SOL    HW213152   9.507   1.490   3.763
  825SOL     OW13153   9.227   9.225   0.676
  825SOL    HW113154   9.208   9.320   0.648
  825SOL    HW213155   9.295   9.226   0.750
  826SOL     OW13156   2.065   5.065   4.311
  826SOL    HW113157   2.066   5.165   4.322
  826SOL    HW213158   2.150   5.036   4.266
  827SOL     OW13159   3.063   0.278   3.678
  827SOL    HW113160   3.013   0.303   3.595
  827SOL    HW213161   3.135   0.212   3.655
  828SOL     OW13162   7.983   3.881   1.538
  828SOL    HW113163   7.936   3.801   1.573
  828SOL    HW213164   8.052   3.853   1.471
  829SOL     OW13165   8.432   9.776   0.192
  829SOL    HW113166   8.403   9.748   0.283
  829SOL    HW213167   8.480   9.701   0.147
  830SOL     OW13168   2.009   4.106   2.088
  830SOL    HW113169   1.916   4.124   2.056
  830SOL    HW213170   2.006   4.050   2.171
  831SOL     OW13171   7.426   8.482   1.296
  831SOL    HW113172   7.503   8.489   1.360
  831SOL    HW213173   7.394   8.387   1.293
  832SOL     OW13174   9.851   4.957   3.679
  832SOL    HW113175   9.761   4.929   3.715
  832SOL    HW213176   9.864   5.055   3.695
  833SOL     OW13177   1.714   1.568   2.753
  833SOL    HW113178   1.713   1.487   2.694
  833SOL    HW213179   1.766   1.548   2.836
  834SOL     OW13180   8.802   5.399   1.692
  834SOL    HW113181   8.866   5.473   1.708
  834SOL    HW213182   8.842   5.313   1.725
  835SOL     OW13183   8.316   7.068   1.868
  835SOL    HW113184   8.312   6.990   1.806
  835SOL    HW213185   8.365   7.143   1.824
  836SOL     OW13186   1.557   5.713   0.414
  836SOL    HW113187   1.642   5.694   0.364
  836SOL    HW213188   1.479   5.696   0.355
  837SOL     OW13189   1.357   7.240   3.533
  837SOL    HW113190   1.445   7.197   3.553
  837SOL    HW213191   1.356   7.333   3.570
  838SOL     OW13192   5.030   9.335   3.801
  838SOL    HW113193   4.931   9.344   3.812
  838SOL    HW213194   5.071   9.424   3.783
  839SOL     OW13195   2.309   7.563   2.063
  839SOL    HW113196   2.281   7.468   2.081
  839SOL    HW213197   2.269   7.623   2.131
  840SOL     OW13198   9.842   2.689   3.818
  840SOL    HW113199   9.860   2.708   3.722
  840SOL    HW213200   9.915   2.729   3.874
  841SOL     OW13201   8.990   9.410   0.376
  841SOL    HW113202   9.006   9.319   0.338
  841SOL    HW213203   8.894   9.418   0.404
  842SOL     OW13204   0.548   5.453   1.807
  842SOL    HW113205   0.498   5.442   1.721
  842SOL    HW213206   0.489   5.496   1.874
  843SOL     OW13207   4.279   9.503   0.235
  843SOL    HW113208   4.346   9.443   0.192
  843SOL    HW213209   4.326   9.564   0.299
  844SOL     OW13210   0.351   7.327   2.740
  844SOL    HW113211   0.407   7.323   2.823
  844SOL    HW213212   0.283   7.254   2.743
  845SOL     OW13213   4.824   9.207   2.384
  845SOL    HW113214   4.816   9.169   2.292
  845SOL    HW213215   4.747   9.176   2.440
  846SOL     OW13216   8.532   2.375   1.496
  846SOL    HW113217   8.588   2.434   1.554
  846SOL    HW213218   8.588   2.339   1.422
  847SOL     OW13219   8.225   4.277   1.736
  847SOL    HW113220   8.253   4.287   1.831
  847SOL    HW213221   8.180   4.188   1.725
  848SOL     OW13222   8.835   3.190   3.188
  848SOL    HW113223   8.736   3.197   3.193
  848SOL    HW213224   8.876   3.233   3.269
  849SOL     OW13225   6.136   8.716   1.749
  849SOL    HW113226   6.197   8.794   1.756
  849SOL    HW213227   6.190   8.631   1.749
  850SOL     OW13228   6.079   8.416   2.935
  850SOL    HW113229   6.049   8.330   2.895
  850SOL    HW213230   6.178   8.424   2.925
  851SOL     OW13231   5.056   3.782   2.414
  851SOL    HW113232   5.105   3.697   2.393
  851SOL    HW213233   4.973   3.788   2.359
  852SOL     OW13234   9.213   4.136   4.197
  852SOL    HW113235   9.177   4.223   4.162
  852SOL    HW213236   9.312   4.135   4.186
  853SOL     OW13237   8.204   6.987   2.099
  853SOL    HW113238   8.241   7.016   2.011
  853SOL    HW213239   8.278   6.977   2.165
  854SOL     OW13240   9.306   6.950   0.596
  854SOL    HW113241   9.304   6.861   0.643
  854SOL    HW213242   9.341   6.937   0.503
  855SOL     OW13243   2.675   3.140   1.541
  855SOL    HW113244   2.605   3.069   1.535
  855SOL    HW213245   2.756   3.104   1.587
  856SOL     OW13246   0.197   0.835   1.072
  856SOL    HW113247   0.235   0.778   1.145
  856SOL    HW213248   0.254   0.916   1.060
  857SOL     OW13249   1.333   5.981   1.523
  857SOL    HW113250   1.350   6.076   1.546
  857SOL    HW213251   1.377   5.959   1.436
  858SOL     OW13252   9.577   6.561   3.468
  858SOL    HW113253   9.627   6.601   3.545
  858SOL    HW213254   9.620   6.474   3.443
  859SOL     OW13255   2.940   5.248   2.039
  859SOL    HW113256   2.908   5.269   2.132
  859SOL    HW213257   2.897   5.311   1.975
  860SOL     OW13258   8.954   9.120   2.561
  860SOL    HW113259   8.958   9.213   2.599
  860SOL    HW213260   8.962   9.053   2.635
  861SOL     OW13261   9.759   0.507   2.862
  861SOL    HW113262   9.680   0.489   2.921
  861SOL    HW213263   9.775   0.605   2.857
  862SOL     OW13264   2.835   0.934   0.579
  862SOL    HW113265   2.740   0.966   0.577
  862SOL    HW213266   2.892   1.003   0.623
  863SOL     OW13267   3.387   6.505   3.822
  863SOL    HW113268   3.342   6.586   3.784
  863SOL    HW213269   3.351   6.485   3.913
  864SOL     OW13270   3.454   1.301   0.789
  864SOL    HW113271   3.544   1.280   0.750
  864SOL    HW213272   3.462   1.310   0.888
  865SOL     OW13273   3.066   2.901   0.361
  865SOL    HW113274   3.107   2.985   0.396
  865SOL    HW213275   2.985   2.878   0.415
  866SOL     OW13276   8.946   2.161   2.234
  866SOL    HW113277   8.901   2.250   2.242
  866SOL    HW213278   8.884   2.096   2.191
  867SOL     OW13279   2.823   1.357   0.799
  867SOL    HW113280   2.748   1.419   0.775
  867SOL    HW213281   2.825   1.342   0.898
  868SOL     OW13282   3.699   0.075   2.051
  868SOL    HW113283   3.726   0.111   2.140
  868SOL    HW213284   3.629   0.005   2.063
  869SOL     OW13285   1.064   1.813   4.168
  869SOL    HW113286   0.966   1.802   4.188
  869SOL    HW213287   1.115   1.813   4.254
  870SOL     OW13288   0.071   9.385   1.376
  870SOL    HW113289   0.081   9.400   1.278
  870SOL    HW213290   0.146   9.327   1.408
  871SOL     OW13291   0.465   0.773   3.082
  871SOL    HW113292   0.403   0.848   3.108
  871SOL    HW213293   0.547   0.778   3.138
  872SOL     OW13294   2.936   8.801   4.031
  872SOL    HW113295   2.947   8.896   4.002
  872SOL    HW213296   2.975   8.789   4.122
  873SOL     OW13297   2.862   5.183   1.142
  873SOL    HW113298   2.771   5.222   1.125
  873SOL    HW213299   2.865   5.146   1.235
  874SOL     OW13300   9.151   6.956   3.689
  874SOL    HW113301   9.100   6.924   3.769
  874SOL    HW213302   9.115   7.045   3.661
  875SOL     OW13303   4.069   7.753   0.975
  875SOL    HW113304   4.043   7.694   0.898
  875SOL    HW213305   4.047   7.707   1.061
  876SOL     OW13306   4.012   6.606   3.566
  876SOL    HW113307   4.090   6.554   3.532
  876SOL    HW213308   3.933   6.545   3.574
  877SOL     OW13309   0.886   1.310   2.241
  877SOL    HW113310   0.915   1.404   2.260
  877SOL    HW213311   0.819   1.310   2.167
  878SOL     OW13312   1.066   4.376   1.863
  878SOL    HW113313   1.107   4.297   1.816
  878SOL    HW213314   1.030   4.346   1.951
  879SOL     OW13315   0.170   7.121   2.719
  879SOL    HW113316   0.177   7.049   2.787
  879SOL    HW213317   0.176   7.082   2.627
  880SOL     OW13318   0.953   8.537   3.723
  880SOL    HW113319   0.995   8.446   3.722
  880SOL    HW213320   1.025   8.606   3.716
  881SOL     OW13321   3.511   5.221   1.136
  881SOL    HW113322   3.492   5.127   1.110
  881SOL    HW213323   3.433   5.279   1.109
  882SOL     OW13324   0.711   2.208   1.722
  882SOL    HW113325   0.662   2.282   1.676
  882SOL    HW213326   0.753   2.244   1.806
  883SOL     OW13327   9.621   7.663   2.879
  883SOL    HW113328   9.678   7.605   2.820
  883SOL    HW213329   9.673   7.744   2.906
  884SOL     OW13330   2.936   8.268   0.873
  884SOL    HW113331   2.873   8.291   0.947
  884SOL    HW213332   3.030   8.272   0.907
  885SOL     OW13333   9.604   0.996   1.860
  885SOL    HW113334   9.590   1.093   1.879
  885SOL    HW213335   9.520   0.945   1.879
  886SOL     OW13336   5.225   1.028   0.832
  886SOL    HW113337   5.262   1.065   0.747
  886SOL    HW213338   5.162   1.093   0.873
  887SOL     OW13339   9.465   2.618   0.868
  887SOL    HW113340   9.495   2.524   0.884
  887SOL    HW213341   9.485   2.644   0.774
  888SOL     OW13342   3.145   1.797   1.563
  888SOL    HW113343   3.167   1.754   1.476
  888SOL    HW213344   3.203   1.758   1.635
  889SOL     OW13345   7.372   9.197   0.699
  889SOL    HW113346   7.374   9.296   0.712
  889SOL    HW213347   7.339   9.153   0.783
  890SOL     OW13348   0.553   3.302   0.492
  890SOL    HW113349   0.614   3.382   0.497
  890SOL    HW213350   0.466   3.329   0.452
  891SOL     OW13351   7.989   3.990   2.428
  891SOL    HW113352   7.895   4.016   2.449
  891SOL    HW213353   8.032   4.062   2.373
  892SOL     OW13354   9.974   9.463   2.752
  892SOL    HW113355   9.909   9.413   2.810
  892SOL    HW213356   9.944   9.456   2.657
  893SOL     OW13357   9.448   3.372   3.629
  893SOL    HW113358   9.471   3.406   3.720
  893SOL    HW213359   9.409   3.280   3.636
  894SOL     OW13360   7.822   6.842   4.042
  894SOL    HW113361   7.875   6.865   3.961
  894SOL    HW213362   7.859   6.760   4.085
  895SOL     OW13363   9.903   1.630   3.604
  895SOL    HW113364   9.858   1.714   3.573
  895SOL    HW213365   9.975   1.653   3.669
  896SOL     OW13366   0.010   9.415   4.058
  896SOL    HW113367   9.952   9.496   4.068
  896SOL    HW213368   0.104   9.438   4.085
  897SOL     OW13369   0.223   8.584   2.811
  897SOL    HW113370   0.262   8.595   2.903
  897SOL    HW213371   0.273   8.641   2.746
  898SOL     OW13372   7.757   0.097   2.339
  898SOL    HW113373   7.685   0.166   2.339
  898SOL    HW213374   7.773   0.066   2.432
  899SOL     OW13375   3.171   2.344   2.012
  899SOL    HW113376   3.216   2.367   1.926
  899SOL    HW213377   3.136   2.428   2.054
  900SOL     OW13378   2.334   9.372   0.923
  900SOL    HW113379   2.288   9.443   0.870
  900SOL    HW213380   2.430   9.365   0.895
  901SOL     OW13381   0.301   1.078   0.446
  901SOL    HW113382   0.223   1.026   0.483
  901SOL    HW213383   0.330   1.038   0.360
  902SOL     OW13384   2.289   1.750   4.044
  902SOL    HW113385   2.318   1.801   3.963
  902SOL    HW213386   2.190   1.760   4.056
  903SOL     OW13387   9.043   9.812   2.399
  903SOL    HW113388   9.127   9.865   2.389
  903SOL    HW213389   9.021   9.768   2.311
  904SOL     OW13390   9.402   9.291   1.904
  904SOL    HW113391   9.418   9.216   1.840
  904SOL    HW213392   9.468   9.364   1.887
  905SOL     OW13393   2.983   2.203   3.175
  905SOL    HW113394   2.953   2.261   3.099
  905SOL    HW213395   3.065   2.152   3.147
  906SOL     OW13396   9.127   2.842   0.082
  906SOL    HW113397   9.212   2.832   0.134
  906SOL    HW213398   9.149   2.864   5.621
  907SOL     OW13399   7.198   6.858   4.099
  907SOL    HW113400   7.106   6.869   4.135
  907SOL    HW213401   7.198   6.870   4.000
  908SOL     OW13402   9.017   9.878   3.589
  908SOL    HW113403   8.933   9.873   3.644
  908SOL    HW213404   9.058   9.969   3.600
  909SOL     OW13405   0.226   3.088   1.962
  909SOL    HW113406   0.183   3.178   1.967
  909SOL    HW213407   0.154   3.018   1.956
  910SOL     OW13408   8.255   8.259   2.040
  910SOL    HW113409   8.235   8.291   2.132
  910SOL    HW213410   8.278   8.337   1.982
  911SOL     OW13411   0.504   9.617   2.444
  911SOL    HW113412   0.542   9.569   2.523
  911SOL    HW213413   0.455   9.551   2.386
  912SOL     OW13414   9.567   6.671   4.199
  912SOL    HW113415   9.651   6.712   4.235
  912SOL    HW213416   9.525   6.733   4.133
  913SOL     OW13417   3.575   2.031   4.090
  913SOL    HW113418   3.489   2.066   4.052
  913SOL    HW213419   3.558   1.992   4.180
  914SOL     OW13420   0.606   5.172   1.799
  914SOL    HW113421   0.587   5.269   1.814
  914SOL    HW213422   0.603   5.124   1.887
  915SOL     OW13423   7.715   8.672   3.355
  915SOL    HW113424   7.745   8.577   3.345
  915SOL    HW213425   7.775   8.719   3.418
  916SOL     OW13426   4.583   1.665   0.807
  916SOL    HW113427   4.495   1.702   0.835
  916SOL    HW213428   4.591   1.571   0.839
  917SOL     OW13429   1.859   3.359   3.045
  917SOL    HW113430   1.805   3.286   3.002
  917SOL    HW213431   1.918   3.319   3.115
  918SOL     OW13432   6.086   8.384   2.066
  918SOL    HW113433   6.005   8.388   2.125
  918SOL    HW213434   6.127   8.293   2.072
  919SOL     OW13435   4.468   7.443   3.076
  919SOL    HW113436   4.416   7.401   3.150
  919SOL    HW213437   4.562   7.459   3.107
  920SOL     OW13438   0.717   3.082   3.080
  920SOL    HW113439   0.673   3.131   3.155
  920SOL    HW213440   0.816   3.099   3.082
  921SOL     OW13441   1.757   1.669   0.856
  921SOL    HW113442   1.822   1.630   0.921
  921SOL    HW213443   1.699   1.596   0.820
  922SOL     OW13444   8.747   1.063   4.424
  922SOL    HW113445   8.761   1.159   4.399
  922SOL    HW213446   8.833   1.025   4.459
  923SOL     OW13447   4.484   9.197   1.294
  923SOL    HW113448   4.499   9.106   1.255
  923SOL    HW213449   4.572   9.237   1.319
  924SOL     OW13450   2.154   7.538   0.347
  924SOL    HW113451   2.223   7.482   0.302
  924SOL    HW213452   2.167   7.535   0.446
  925SOL     OW13453   9.471   3.144   2.465
  925SOL    HW113454   9.490   3.186   2.553
  925SOL    HW213455   9.389   3.185   2.425
  926SOL     OW13456   1.874   8.784   0.180
  926SOL    HW113457   1.787   8.808   0.222
  926SOL    HW213458   1.878   8.685   0.165
  927SOL     OW13459   5.937   0.126   1.365
  927SOL    HW113460   5.910   0.209   1.315
  927SOL    HW213461   6.031   0.137   1.398
  928SOL     OW13462   4.759   2.845   2.528
  928SOL    HW113463   4.738   2.943   2.536
  928SOL    HW213464   4.805   2.828   2.441
  929SOL     OW13465   2.183   7.331   2.159
  929SOL    HW113466   2.200   7.363   2.252
  929SOL    HW213467   2.085   7.310   2.149
  930SOL     OW13468   8.928   2.937   3.257
  930SOL    HW113469   8.870   2.865   3.220
  930SOL    HW213470   8.902   3.025   3.218
  931SOL     OW13471   9.519   8.749   2.047
  931SOL    HW113472   9.535   8.701   2.134
  931SOL    HW213473   9.582   8.826   2.039
  932SOL     OW13474   2.737   5.814   1.114
  932SOL    HW113475   2.665   5.875   1.148
  932SOL    HW213476   2.695   5.740   1.061
  933SOL     OW13477   3.065   6.767   4.268
  933SOL    HW113478   2.985   6.761   4.210
  933SOL    HW213479   3.082   6.863   4.292
  934SOL     OW13480   8.539   0.618   0.722
  934SOL    HW113481   8.498   0.709   0.717
  934SOL    HW213482   8.484   0.554   0.667
  935SOL     OW13483   2.516   4.163   3.367
  935SOL    HW113484   2.433   4.171   3.312
  935SOL    HW213485   2.594   4.196   3.314
  936SOL     OW13486   7.961   8.359   4.300
  936SOL    HW113487   7.865   8.352   4.329
  936SOL    HW213488   7.982   8.455   4.279
  937SOL     OW13489   9.082   5.254   1.380
  937SOL    HW113490   9.057   5.158   1.374
  937SOL    HW213491   9.001   5.308   1.403
  938SOL     OW13492   4.431   6.486   2.284
  938SOL    HW113493   4.344   6.517   2.322
  938SOL    HW213494   4.421   6.470   2.186
  939SOL     OW13495   4.293   4.307   0.766
  939SOL    HW113496   4.367   4.372   0.749
  939SOL    HW213497   4.286   4.243   0.690
  940SOL     OW13498   1.807   4.985   0.123
  940SOL    HW113499   1.858   5.070   0.120
  940SOL    HW213500   1.859   4.916   0.175
  941SOL     OW13501   1.167   1.736   3.750
  941SOL    HW113502   1.258   1.736   3.708
  941SOL    HW213503   1.172   1.695   3.841
  942SOL     OW13504   3.889   6.201   2.452
  942SOL    HW113505   3.872   6.178   2.548
  942SOL    HW213506   3.964   6.266   2.445
  943SOL     OW13507   1.760   8.893   1.999
  943SOL    HW113508   1.717   8.894   1.909
  943SOL    HW213509   1.725   8.970   2.053
  944SOL     OW13510   9.259   3.273   2.344
  944SOL    HW113511   9.275   3.264   2.246
  944SOL    HW213512   9.227   3.365   2.364
  945SOL     OW13513   9.587   3.293   3.131
  945SOL    HW113514   9.583   3.207   3.183
  945SOL    HW213515   9.670   3.294   3.075
  946SOL     OW13516   3.844   1.902   0.748
  946SOL    HW113517   3.839   1.928   0.845
  946SOL    HW213518   3.787   1.963   0.694
  947SOL     OW13519   3.059   0.309   2.342
  947SOL    HW113520   3.099   0.375   2.278
  947SOL    HW213521   2.960   0.311   2.334
  948SOL     OW13522   4.535   0.981   2.340
  948SOL    HW113523   4.616   1.017   2.388
  948SOL    HW213524   4.563   0.946   2.250
  949SOL     OW13525   2.431   3.120   2.948
  949SOL    HW113526   2.500   3.107   2.876
  949SOL    HW213527   2.470   3.093   3.036
  950SOL     OW13528   3.588   9.696   0.144
  950SOL    HW113529   3.600   9.736   0.054
  950SOL    HW213530   3.551   9.764   0.207
  951SOL     OW13531   4.549   6.684   4.134
  951SOL    HW113532   4.479   6.754   4.151
  951SOL    HW213533   4.528   6.602   4.187
  952SOL     OW13534   0.110   8.528   2.023
  952SOL    HW113535   0.024   8.510   2.071
  952SOL    HW213536   0.091   8.550   1.927
  953SOL     OW13537   1.256   5.561   3.195
  953SOL    HW113538   1.279   5.519   3.283
  953SOL    HW213539   1.318   5.528   3.125
  954SOL     OW13540   9.907   4.201   0.367
  954SOL    HW113541   9.809   4.221   0.359
  954SOL    HW213542   9.945   4.256   0.442
  955SOL     OW13543   0.736   5.430   0.890
  955SOL    HW113544   0.815   5.378   0.922
  955SOL    HW213545   0.675   5.450   0.967
  956SOL     OW13546   5.362   4.145   0.342
  956SOL    HW113547   5.440   4.200   0.371
  956SOL    HW213548   5.282   4.204   0.330
  957SOL     OW13549   9.331   9.035   0.295
  957SOL    HW113550   9.312   8.937   0.307
  957SOL    HW213551   9.245   9.082   0.274
  958SOL     OW13552   4.775   9.290   3.991
  958SOL    HW113553   4.717   9.287   4.072
  958SOL    HW213554   4.735   9.354   3.925
  959SOL     OW13555   2.808   3.244   1.095
  959SOL    HW113556   2.801   3.331   1.046
  959SOL    HW213557   2.763   3.253   1.184
  960SOL     OW13558   8.023   6.472   2.478
  960SOL    HW113559   7.992   6.536   2.408
  960SOL    HW213560   8.057   6.524   2.557
  961SOL     OW13561   7.338   0.279   1.558
  961SOL    HW113562   7.288   0.274   1.472
  961SOL    HW213563   7.301   0.210   1.621
  962SOL     OW13564   4.932   3.183   2.670
  962SOL    HW113565   4.840   3.146   2.683
  962SOL    HW213566   4.988   3.116   2.619
  963SOL     OW13567   9.888   1.388   3.742
  963SOL    HW113568   9.870   1.471   3.691
  963SOL    HW213569   9.985   1.384   3.767
  964SOL     OW13570   3.732   7.148   3.833
  964SOL    HW113571   3.713   7.119   3.927
  964SOL    HW213572   3.676   7.228   3.811
  965SOL     OW13573   8.701   4.155   0.685
  965SOL    HW113574   8.701   4.252   0.664
  965SOL    HW213575   8.775   4.134   0.748
  966SOL     OW13576   0.595   8.319   0.437
  966SOL    HW113577   0.571   8.344   0.531
  966SOL    HW213578   0.686   8.356   0.416
  967SOL     OW13579   9.444   7.603   3.074
  967SOL    HW113580   9.506   7.628   3.000
  967SOL    HW213581   9.417   7.684   3.125
  968SOL     OW13582   7.541   1.027   2.146
  968SOL    HW113583   7.540   1.122   2.177
  968SOL    HW213584   7.614   0.977   2.193
  969SOL     OW13585   2.229   1.492   3.787
  969SOL    HW113586   2.312   1.547   3.775
  969SOL    HW213587   2.255   1.398   3.810
  970SOL     OW13588   9.153   3.513   4.026
  970SOL    HW113589   9.138   3.588   3.961
  970SOL    HW213590   9.097   3.435   4.000
  971SOL     OW13591   2.582   9.481   1.184
  971SOL    HW113592   2.559   9.545   1.111
  971SOL    HW213593   2.681   9.479   1.197
  972SOL     OW13594   7.781   0.924   0.259
  972SOL    HW113595   7.698   0.869   0.266
  972SOL    HW213596   7.757   1.021   0.257
  973SOL     OW13597   2.719   0.770   2.492
  973SOL    HW113598   2.653   0.697   2.506
  973SOL    HW213599   2.768   0.788   2.577
  974SOL     OW13600   1.121   2.873   3.310
  974SOL    HW113601   1.048   2.872   3.242
  974SOL    HW213602   1.140   2.967   3.337
  975SOL     OW13603   8.565   5.937   1.177
  975SOL    HW113604   8.484   5.895   1.137
  975SOL    HW213605   8.540   6.024   1.220
  976SOL     OW13606   7.509   2.571   3.171
  976SOL    HW113607   7.415   2.543   3.151
  976SOL    HW213608   7.564   2.491   3.192
  977SOL     OW13609   2.862   5.597   3.314
  977SOL    HW113610   2.873   5.527   3.385
  977SOL    HW213611   2.939   5.661   3.320
  978SOL     OW13612   5.794   8.099   2.966
  978SOL    HW113613   5.875   8.128   2.915
  978SOL    HW213614   5.758   8.014   2.926
  979SOL     OW13615   4.859   2.017   1.912
  979SOL    HW113616   4.855   2.056   2.004
  979SOL    HW213617   4.895   1.924   1.916
  980SOL     OW13618   0.255   9.639   0.297
  980SOL    HW113619   0.330   9.636   0.231
  980SOL    HW213620   0.169   9.660   0.249
  981SOL     OW13621   7.790   0.008   2.620
  981SOL    HW113622   7.819   9.921   2.581
  981SOL    HW213623   7.750   9.993   2.710
  982SOL     OW13624   6.218   0.197   4.057
  982SOL    HW113625   6.260   0.106   4.059
  982SOL    HW213626   6.223   0.237   4.149
  983SOL     OW13627   4.811   5.427   1.188
  983SOL    HW113628   4.717   5.443   1.158
  983SOL    HW213629   4.874   5.456   1.116
  984SOL     OW13630   1.401   1.758   2.542
  984SOL    HW113631   1.426   1.721   2.632
  984SOL    HW213632   1.472   1.822   2.512
  985SOL     OW13633   6.873   7.445   3.628
  985SOL    HW113634   6.944   7.375   3.643
  985SOL    HW213635   6.783   7.404   3.640
  986SOL     OW13636   3.566   1.335   2.068
  986SOL    HW113637   3.606   1.380   1.988
  986SOL    HW213638   3.493   1.392   2.105
  987SOL     OW13639   9.321   9.772   0.272
  987SOL    HW113640   9.333   9.856   0.325
  987SOL    HW213641   9.336   9.693   0.331
  988SOL     OW13642   1.355   3.275   1.901
  988SOL    HW113643   1.313   3.349   1.848
  988SOL    HW213644   1.436   3.309   1.948
  989SOL     OW13645   7.413   8.417   2.569
  989SOL    HW113646   7.400   8.513   2.548
  989SOL    HW213647   7.447   8.408   2.663
  990SOL     OW13648   9.429   2.638   1.778
  990SOL    HW113649   9.372   2.720   1.788
  990SOL    HW213650   9.508   2.644   1.839
  991SOL     OW13651   0.963   0.407   4.166
  991SOL    HW113652   0.899   0.483   4.162
  991SOL    HW213653   1.016   0.402   4.081
  992SOL     OW13654   7.306   9.231   3.509
  992SOL    HW113655   7.264   9.231   3.600
  992SOL    HW213656   7.402   9.257   3.516
  993SOL     OW13657   4.275   8.942   1.137
  993SOL    HW113658   4.374   8.946   1.148
  993SOL    HW213659   4.248   8.853   1.099
  994SOL     OW13660   9.880   0.305   1.456
  994SOL    HW113661   9.947   0.374   1.486
  994SOL    HW213662   9.883   0.227   1.518
  995SOL     OW13663   9.231   7.684   1.599
  995SOL    HW113664   9.327   7.713   1.596
  995SOL    HW213665   9.189   7.700   1.510
  996SOL     OW13666   3.942   7.123   3.444
  996SOL    HW113667   3.912   7.125   3.348
  996SOL    HW213668   3.942   7.029   3.477
  997SOL     OW13669   5.559   9.193   3.469
  997SOL    HW113670   5.471   9.215   3.427
  997SOL    HW213671   5.632   9.242   3.421
  998SOL     OW13672   1.703   4.869   2.152
  998SOL    HW113673   1.604   4.866   2.161
  998SOL    HW213674   1.737   4.958   2.185
  999SOL     OW13675   1.117   3.267   4.140
  999SOL    HW113676   1.111   3.357   4.182
  999SOL    HW213677   1.124   3.277   4.041
 1000SOL     OW13678   7.345   7.963   3.957
 1000SOL    HW113679   7.333   7.951   4.056
 1000SOL    HW213680   7.348   7.873   3.913
 1001SOL     OW13681   3.437   7.483   4.094
 1001SOL    HW113682   3.529   7.505   4.061
 1001SOL    HW213683   3.381   7.452   4.018
 1002SOL     OW13684   1.998   4.352   1.749
 1002SOL    HW113685   2.005   4.447   1.717
 1002SOL    HW213686   2.046   4.343   1.836
 1003SOL     OW13687   4.042   7.813   3.220
 1003SOL    HW113688   4.054   7.798   3.318
 1003SOL    HW213689   4.130   7.800   3.174
 1004SOL     OW13690   1.712   7.568   2.952
 1004SOL    HW113691   1.785   7.554   2.885
 1004SOL    HW213692   1.753   7.585   3.042
 1005SOL     OW13693   4.526   5.882   1.839
 1005SOL    HW113694   4.624   5.901   1.837
 1005SOL    HW213695   4.501   5.844   1.928
 1006SOL     OW13696   2.269   4.120   0.081
 1006SOL    HW113697   2.320   4.058   0.140
 1006SOL    HW213698   2.298   4.108   5.620
 1007SOL     OW13699   0.499   3.841   0.008
 1007SOL    HW113700   0.512   3.744   0.024
 1007SOL    HW213701   0.502   3.860   5.544
 1008SOL     OW13702   5.753   1.010   3.720
 1008SOL    HW113703   5.734   0.916   3.692
 1008SOL    HW213704   5.669   1.053   3.754
 1009SOL     OW13705   3.398   0.518   2.980
 1009SOL    HW113706   3.489   0.496   3.015
 1009SOL    HW213707   3.398   0.509   2.880
 1010SOL     OW13708   5.710   6.812   3.090
 1010SOL    HW113709   5.755   6.724   3.104
 1010SOL    HW213710   5.777   6.885   3.099
 1011SOL     OW13711   3.398   5.823   1.682
 1011SOL    HW113712   3.378   5.749   1.746
 1011SOL    HW213713   3.484   5.803   1.634
 1012SOL     OW13714   6.953   7.439   3.242
 1012SOL    HW113715   6.882   7.420   3.174
 1012SOL    HW213716   6.922   7.511   3.304
 1013SOL     OW13717   7.949   0.113   1.697
 1013SOL    HW113718   8.023   0.164   1.653
 1013SOL    HW213719   7.865   0.167   1.695
 1014SOL     OW13720   3.769   1.292   2.961
 1014SOL    HW113721   3.776   1.193   2.946
 1014SOL    HW213722   3.860   1.331   2.970
 1015SOL     OW13723   4.935   5.430   1.687
 1015SOL    HW113724   4.873   5.490   1.635
 1015SOL    HW213725   4.881   5.362   1.736
 1016SOL     OW13726   9.843   9.129   3.679
 1016SOL    HW113727   9.838   9.197   3.753
 1016SOL    HW213728   9.752   9.117   3.639
 1017SOL     OW13729   6.860   8.655   3.563
 1017SOL    HW113730   6.784   8.682   3.623
 1017SOL    HW213731   6.836   8.677   3.468
 1018SOL     OW13732   8.251   3.338   2.807
 1018SOL    HW113733   8.242   3.430   2.770
 1018SOL    HW213734   8.284   3.277   2.735
 1019SOL     OW13735   7.906   8.479   2.880
 1019SOL    HW113736   7.816   8.516   2.858
 1019SOL    HW213737   7.934   8.416   2.808
 1020SOL     OW13738   9.192   9.263   2.081
 1020SOL    HW113739   9.213   9.188   2.144
 1020SOL    HW213740   9.267   9.272   2.015
 1021SOL     OW13741   6.404   9.515   3.849
 1021SOL    HW113742   6.339   9.578   3.892
 1021SOL    HW213743   6.368   9.422   3.853
 1022SOL     OW13744   9.394   4.660   0.820
 1022SOL    HW113745   9.386   4.564   0.793
 1022SOL    HW213746   9.490   4.689   0.814
 1023SOL     OW13747   9.447   6.053   0.360
 1023SOL    HW113748   9.474   6.125   0.295
 1023SOL    HW213749   9.461   6.085   0.453
 1024SOL     OW13750   0.410   7.648   3.920
 1024SOL    HW113751   0.391   7.666   4.017
 1024SOL    HW213752   0.464   7.722   3.882
 1025SOL     OW13753   7.418   2.163   0.357
 1025SOL    HW113754   7.405   2.177   0.259
 1025SOL    HW213755   7.440   2.250   0.401
 1026SOL     OW13756   5.807   7.384   3.409
 1026SOL    HW113757   5.725   7.431   3.443
 1026SOL    HW213758   5.876   7.452   3.383
 1027SOL     OW13759   2.110   2.440   2.437
 1027SOL    HW113760   2.140   2.525   2.394
 1027SOL    HW213761   2.162   2.425   2.521
 1028SOL     OW13762   3.338   0.093   2.140
 1028SOL    HW113763   3.361   0.121   2.234
 1028SOL    HW213764   3.393   0.013   2.115
 1029SOL     OW13765   3.468   7.946   0.499
 1029SOL    HW113766   3.505   8.038   0.510
 1029SOL    HW213767   3.444   7.930   0.404
 1030SOL     OW13768   0.390   6.331   4.341
 1030SOL    HW113769   0.410   6.396   4.415
 1030SOL    HW213770   0.292   6.332   4.322
 1031SOL     OW13771   3.054   8.326   1.194
 1031SOL    HW113772   2.992   8.405   1.194
 1031SOL    HW213773   3.107   8.325   1.110
 1032SOL     OW13774   3.352   5.617   1.867
 1032SOL    HW113775   3.448   5.623   1.893
 1032SOL    HW213776   3.294   5.633   1.947
 1033SOL     OW13777   1.239   6.679   0.486
 1033SOL    HW113778   1.156   6.667   0.540
 1033SOL    HW213779   1.304   6.607   0.508
 1034SOL     OW13780   3.858   3.910   3.415
 1034SOL    HW113781   3.786   3.940   3.352
 1034SOL    HW213782   3.915   3.842   3.370
 1035SOL     OW13783   0.909   7.431   2.390
 1035SOL    HW113784   0.942   7.477   2.307
 1035SOL    HW213785   0.948   7.475   2.470
 1036SOL     OW13786   0.176   6.605   1.863
 1036SOL    HW113787   0.129   6.590   1.776
 1036SOL    HW213788   0.122   6.565   1.937
 1037SOL     OW13789   2.986   7.137   1.111
 1037SOL    HW113790   3.073   7.090   1.099
 1037SOL    HW213791   2.936   7.137   1.024
 1038SOL     OW13792   7.038   1.712   2.969
 1038SOL    HW113793   7.023   1.731   2.872
 1038SOL    HW213794   7.122   1.758   3.000
 1039SOL     OW13795   2.031   1.546   3.970
 1039SOL    HW113796   2.060   1.476   4.035
 1039SOL    HW213797   2.091   1.543   3.889
 1040SOL     OW13798   0.138   6.017   4.132
 1040SOL    HW113799   0.193   6.074   4.070
 1040SOL    HW213800   0.081   6.075   4.190
 1041SOL     OW13801   4.996   0.699   1.691
 1041SOL    HW113802   5.035   0.607   1.690
 1041SOL    HW213803   5.033   0.750   1.769
 1042SOL     OW13804   2.976   6.121   4.083
 1042SOL    HW113805   2.893   6.093   4.036
 1042SOL    HW213806   2.958   6.132   4.181
 1043SOL     OW13807   8.645   8.213   2.345
 1043SOL    HW113808   8.687   8.197   2.435
 1043SOL    HW213809   8.714   8.201   2.274
 1044SOL     OW13810   1.010   6.633   2.741
 1044SOL    HW113811   0.911   6.635   2.724
 1044SOL    HW213812   1.040   6.538   2.751
 1045SOL     OW13813   9.042   3.009   3.492
 1045SOL    HW113814   9.035   3.108   3.485
 1045SOL    HW213815   8.997   2.967   3.413
 1046SOL     OW13816   7.505   0.897   1.901
 1046SOL    HW113817   7.520   0.942   1.989
 1046SOL    HW213818   7.432   0.944   1.852
 1047SOL     OW13819   5.270   6.631   3.502
 1047SOL    HW113820   5.288   6.601   3.409
 1047SOL    HW213821   5.325   6.712   3.522
 1048SOL     OW13822   1.512   1.781   1.619
 1048SOL    HW113823   1.604   1.759   1.653
 1048SOL    HW213824   1.446   1.772   1.694
 1049SOL     OW13825   3.933   8.866   3.152
 1049SOL    HW113826   3.923   8.931   3.077
 1049SOL    HW213827   3.853   8.872   3.213
 1050SOL     OW13828   1.705   9.752   2.202
 1050SOL    HW113829   1.622   9.745   2.257
 1050SOL    HW213830   1.680   9.770   2.107
 1051SOL     OW13831   4.813   8.289   2.249
 1051SOL    HW113832   4.768   8.303   2.161
 1051SOL    HW213833   4.908   8.260   2.233
 1052SOL     OW13834   0.873   3.973   1.891
 1052SOL    HW113835   0.839   4.032   1.964
 1052SOL    HW213836   0.821   3.887   1.890
 1053SOL     OW13837   2.020   0.928   3.182
 1053SOL    HW113838   1.937   0.884   3.216
 1053SOL    HW213839   2.018   1.025   3.206
 1054SOL     OW13840   2.141   7.697   2.246
 1054SOL    HW113841   2.126   7.612   2.297
 1054SOL    HW213842   2.078   7.700   2.167
 1055SOL     OW13843   5.353   1.335   2.114
 1055SOL    HW113844   5.365   1.263   2.047
 1055SOL    HW213845   5.278   1.311   2.176
 1056SOL     OW13846   8.143   1.644   2.752
 1056SOL    HW113847   8.150   1.686   2.662
 1056SOL    HW213848   8.222   1.671   2.809
 1057SOL     OW13849   8.665   4.871   0.883
 1057SOL    HW113850   8.631   4.814   0.808
 1057SOL    HW213851   8.688   4.962   0.847
 1058SOL     OW13852   1.509   3.786   1.652
 1058SOL    HW113853   1.437   3.764   1.718
 1058SOL    HW213854   1.536   3.882   1.662
 1059SOL     OW13855   7.587   0.521   3.479
 1059SOL    HW113856   7.673   0.472   3.492
 1059SOL    HW213857   7.522   0.496   3.551
 1060SOL     OW13858   4.618   8.471   1.564
 1060SOL    HW113859   4.520   8.452   1.570
 1060SOL    HW213860   4.646   8.474   1.468
 1061SOL     OW13861   4.572   7.774   1.452
 1061SOL    HW113862   4.547   7.861   1.410
 1061SOL    HW213863   4.540   7.773   1.547
 1062SOL     OW13864   0.007   2.114   1.842
 1062SOL    HW113865   0.064   2.076   1.769
 1062SOL    HW213866   0.004   2.214   1.834
 1063SOL     OW13867   9.304   8.183   1.697
 1063SOL    HW113868   9.397   8.172   1.662
 1063SOL    HW213869   9.242   8.200   1.620
 1064SOL     OW13870   9.484   7.227   1.225
 1064SOL    HW113871   9.496   7.150   1.287
 1064SOL    HW213872   9.401   7.215   1.172
 1065SOL     OW13873   8.513   0.200   0.800
 1065SOL    HW113874   8.554   0.206   0.709
 1065SOL    HW213875   8.584   0.215   0.869
 1066SOL     OW13876   4.733   7.862   2.863
 1066SOL    HW113877   4.777   7.861   2.953
 1066SOL    HW213878   4.801   7.848   2.791
 1067SOL     OW13879   1.936   5.657   2.596
 1067SOL    HW113880   1.975   5.747   2.578
 1067SOL    HW213881   2.009   5.588   2.592
 1068SOL     OW13882   3.822   0.441   0.685
 1068SOL    HW113883   3.839   0.535   0.657
 1068SOL    HW213884   3.724   0.423   0.685
 1069SOL     OW13885   9.391   9.224   0.900
 1069SOL    HW113886   9.397   9.305   0.958
 1069SOL    HW213887   9.334   9.155   0.945
 1070SOL     OW13888   9.976   1.777   4.196
 1070SOL    HW113889   0.007   1.685   4.220
 1070SOL    HW213890   9.904   1.771   4.127
 1071SOL     OW13891   4.162   0.836   3.659
 1071SOL    HW113892   4.115   0.879   3.582
 1071SOL    HW213893   4.221   0.904   3.703
 1072SOL     OW13894   3.588   0.537   3.462
 1072SOL    HW113895   3.645   0.477   3.405
 1072SOL    HW213896   3.518   0.482   3.507
 1073SOL     OW13897   2.156   9.993   2.106
 1073SOL    HW113898   2.187   0.082   2.141
 1073SOL    HW213899   2.078   9.961   2.160
 1074SOL     OW13900   4.120   1.200   0.767
 1074SOL    HW113901   4.046   1.259   0.735
 1074SOL    HW213902   4.171   1.164   0.689
 1075SOL     OW13903   4.774   1.924   1.105
 1075SOL    HW113904   4.676   1.908   1.120
 1075SOL    HW213905   4.801   2.008   1.151
 1076SOL     OW13906   6.239   0.280   4.311
 1076SOL    HW113907   6.316   0.301   4.372
 1076SOL    HW213908   6.162   0.246   4.366
 1077SOL     OW13909   0.282   0.562   3.033
 1077SOL    HW113910   0.351   0.630   3.056
 1077SOL    HW213911   0.193   0.592   3.068
 1078SOL     OW13912   8.473   2.474   1.153
 1078SOL    HW113913   8.398   2.424   1.196
 1078SOL    HW213914   8.492   2.557   1.204
 1079SOL     OW13915   9.647   2.741   2.221
 1079SOL    HW113916   9.574   2.800   2.256
 1079SOL    HW213917   9.656   2.661   2.279
 1080SOL     OW13918   8.495   2.944   3.562
 1080SOL    HW113919   8.465   3.032   3.598
 1080SOL    HW213920   8.417   2.881   3.560
 1081SOL     OW13921   9.656   6.944   1.178
 1081SOL    HW113922   9.706   6.859   1.192
 1081SOL    HW213923   9.619   6.976   1.265
 1082SOL     OW13924   3.372   5.805   3.932
 1082SOL    HW113925   3.381   5.793   3.833
 1082SOL    HW213926   3.338   5.896   3.953
 1083SOL     OW13927   2.076   3.834   3.950
 1083SOL    HW113928   2.082   3.912   4.012
 1083SOL    HW213929   1.983   3.799   3.949
 1084SOL     OW13930   3.445   9.301   0.412
 1084SOL    HW113931   3.425   9.379   0.353
 1084SOL    HW213932   3.410   9.318   0.504
 1085SOL     OW13933   2.195   3.854   2.778
 1085SOL    HW113934   2.207   3.953   2.764
 1085SOL    HW213935   2.098   3.834   2.790
 1086SOL     OW13936   9.828   6.303   3.150
 1086SOL    HW113937   9.737   6.342   3.134
 1086SOL    HW213938   9.892   6.344   3.085
 1087SOL     OW13939   1.490   8.313   0.268
 1087SOL    HW113940   1.547   8.232   0.256
 1087SOL    HW213941   1.433   8.302   0.349
 1088SOL     OW13942   9.412   0.619   0.533
 1088SOL    HW113943   9.445   0.536   0.488
 1088SOL    HW213944   9.391   0.688   0.463
 1089SOL     OW13945   2.176   8.224   0.865
 1089SOL    HW113946   2.255   8.199   0.809
 1089SOL    HW213947   2.204   8.230   0.961
 1090SOL     OW13948   8.036   2.446   2.896
 1090SOL    HW113949   8.031   2.535   2.850
 1090SOL    HW213950   8.050   2.375   2.827
 1091SOL     OW13951   8.560   9.034   2.678
 1091SOL    HW113952   8.614   9.050   2.596
 1091SOL    HW213953   8.528   9.122   2.714
 1092SOL     OW13954   4.987   7.955   1.559
 1092SOL    HW113955   4.928   7.890   1.512
 1092SOL    HW213956   5.056   7.905   1.612
 1093SOL     OW13957   1.293   6.439   1.405
 1093SOL    HW113958   1.313   6.499   1.482
 1093SOL    HW213959   1.280   6.494   1.322
 1094SOL     OW13960   6.310   1.575   2.662
 1094SOL    HW113961   6.269   1.657   2.623
 1094SOL    HW213962   6.388   1.546   2.607
 1095SOL     OW13963   8.640   7.020   1.081
 1095SOL    HW113964   8.608   6.962   1.156
 1095SOL    HW213965   8.729   7.058   1.103
 1096SOL     OW13966   3.008   3.817   2.250
 1096SOL    HW113967   3.078   3.753   2.280
 1096SOL    HW213968   2.993   3.806   2.151
 1097SOL     OW13969   3.700   0.167   2.316
 1097SOL    HW113970   3.755   0.130   2.392
 1097SOL    HW213971   3.605   0.177   2.345
 1098SOL     OW13972   9.084   3.936   0.981
 1098SOL    HW113973   9.091   3.845   0.941
 1098SOL    HW213974   9.065   3.928   1.079
 1099SOL     OW13975   1.702   9.304   1.977
 1099SOL    HW113976   1.722   9.379   2.040
 1099SOL    HW213977   1.787   9.258   1.952
 1100SOL     OW13978   0.964   2.155   1.595
 1100SOL    HW113979   1.008   2.239   1.562
 1100SOL    HW213980   0.867   2.174   1.612
 1101SOL     OW13981   8.036   5.807   1.094
 1101SOL    HW113982   8.134   5.820   1.077
 1101SOL    HW213983   8.004   5.727   1.044
 1102SOL     OW13984   7.077   8.322   1.349
 1102SOL    HW113985   7.160   8.296   1.300
 1102SOL    HW213986   7.029   8.393   1.297
 1103SOL     OW13987   4.550   0.253   2.729
 1103SOL    HW113988   4.586   0.161   2.743
 1103SOL    HW213989   4.459   0.248   2.687
 1104SOL     OW13990   1.394   0.544   1.267
 1104SOL    HW113991   1.431   0.630   1.301
 1104SOL    HW213992   1.382   0.549   1.168
 1105SOL     OW13993   7.396   8.164   3.013
 1105SOL    HW113994   7.441   8.123   3.092
 1105SOL    HW213995   7.462   8.221   2.963
 1106SOL     OW13996   5.870   6.679   1.901
 1106SOL    HW113997   5.875   6.580   1.888
 1106SOL    HW213998   5.777   6.703   1.929
 1107SOL     OW13999   8.391   9.201   3.744
 1107SOL    HW114000   8.455   9.227   3.671
 1107SOL    HW214001   8.354   9.110   3.724
 1108SOL     OW14002   8.667   2.029   0.970
 1108SOL    HW114003   8.661   2.124   0.998
 1108SOL    HW214004   8.602   2.011   0.896
 1109SOL     OW14005   0.860   9.839   0.527
 1109SOL    HW114006   0.809   9.776   0.584
 1109SOL    HW214007   0.939   9.874   0.577
 1110SOL     OW14008   4.286   6.205   2.538
 1110SOL    HW114009   4.276   6.106   2.547
 1110SOL    HW214010   4.378   6.227   2.505
 1111SOL     OW14011   2.452   7.934   3.562
 1111SOL    HW114012   2.496   7.882   3.488
 1111SOL    HW214013   2.505   7.925   3.646
 1112SOL     OW14014   8.390   3.995   3.408
 1112SOL    HW114015   8.422   3.902   3.428
 1112SOL    HW214016   8.296   4.005   3.441
 1113SOL     OW14017   0.213   5.242   3.036
 1113SOL    HW114018   0.250   5.149   3.033
 1113SOL    HW214019   0.119   5.241   3.002
 1114SOL     OW14020   2.949   9.779   3.312
 1114SOL    HW114021   3.008   9.706   3.348
 1114SOL    HW214022   2.920   9.755   3.219
 1115SOL     OW14023   3.196   3.629   2.324
 1115SOL    HW114024   3.294   3.650   2.313
 1115SOL    HW214025   3.178   3.537   2.289
 1116SOL     OW14026   7.989   8.383   3.886
 1116SOL    HW114027   7.918   8.322   3.920
 1116SOL    HW214028   8.071   8.374   3.943
 1117SOL     OW14029   2.402   9.908   3.338
 1117SOL    HW114030   2.307   9.887   3.358
 1117SOL    HW214031   2.460   9.880   3.414
 1118SOL     OW14032   8.379   6.686   2.617
 1118SOL    HW114033   8.431   6.736   2.687
 1118SOL    HW214034   8.334   6.751   2.556
 1119SOL     OW14035   2.103   8.785   3.593
 1119SOL    HW114036   2.124   8.727   3.515
 1119SOL    HW214037   2.140   8.876   3.578
 1120SOL     OW14038   3.396   0.878   2.000
 1120SOL    HW114039   3.424   0.785   1.976
 1120SOL    HW214040   3.476   0.932   2.024
 1121SOL     OW14041   3.062   0.719   0.846
 1121SOL    HW114042   2.972   0.707   0.805
 1121SOL    HW214043   3.133   0.697   0.779
 1122SOL     OW14044   4.403   9.571   2.960
 1122SOL    HW114045   4.495   9.543   2.986
 1122SOL    HW214046   4.405   9.613   2.869
 1123SOL     OW14047   9.270   1.187   0.949
 1123SOL    HW114048   9.333   1.164   1.022
 1123SOL    HW214049   9.206   1.111   0.935
 1124SOL     OW14050   4.930   9.134   4.412
 1124SOL    HW114051   4.941   9.228   4.380
 1124SOL    HW214052   4.833   9.117   4.432
 1125SOL     OW14053   8.754   9.305   2.785
 1125SOL    HW114054   8.833   9.335   2.733
 1125SOL    HW214055   8.782   9.280   2.877
 1126SOL     OW14056   7.344   9.620   2.743
 1126SOL    HW114057   7.375   9.711   2.716
 1126SOL    HW214058   7.344   9.560   2.663
 1127SOL     OW14059   1.351   0.811   1.602
 1127SOL    HW114060   1.254   0.834   1.614
 1127SOL    HW214061   1.369   0.722   1.645
 1128SOL     OW14062   2.384   0.221   0.807
 1128SOL    HW114063   2.452   0.147   0.813
 1128SOL    HW214064   2.376   0.251   0.712
 1129SOL     OW14065   9.192   8.115   0.987
 1129SOL    HW114066   9.101   8.105   1.027
 1129SOL    HW214067   9.251   8.165   1.051
 1130SOL     OW14068   4.451   1.688   0.049
 1130SOL    HW114069   4.396   1.664   0.129
 1130SOL    HW214070   4.459   1.787   0.043
 1131SOL     OW14071   2.881   6.579   1.390
 1131SOL    HW114072   2.962   6.535   1.428
 1131SOL    HW214073   2.804   6.570   1.454
 1132SOL     OW14074   0.895   2.137   0.805
 1132SOL    HW114075   0.979   2.101   0.766
 1132SOL    HW214076   0.916   2.207   0.873
 1133SOL     OW14077   2.214   5.293   2.381
 1133SOL    HW114078   2.207   5.197   2.353
 1133SOL    HW214079   2.145   5.313   2.450
 1134SOL     OW14080   2.357   9.031   3.279
 1134SOL    HW114081   2.368   9.111   3.222
 1134SOL    HW214082   2.343   8.950   3.222
 1135SOL     OW14083   9.977   1.029   4.226
 1135SOL    HW114084   9.905   1.092   4.196
 1135SOL    HW214085   9.935   0.943   4.256
 1136SOL     OW14086   5.636   1.318   4.262
 1136SOL    HW114087   5.684   1.301   4.176
 1136SOL    HW214088   5.598   1.411   4.260
 1137SOL     OW14089   3.065   8.063   4.264
 1137SOL    HW114090   2.967   8.057   4.245
 1137SOL    HW214091   3.084   8.021   4.353
 1138SOL     OW14092   7.391   2.401   0.666
 1138SOL    HW114093   7.444   2.408   0.582
 1138SOL    HW214094   7.312   2.463   0.661
 1139SOL     OW14095   0.319   4.812   3.186
 1139SOL    HW114096   0.418   4.822   3.171
 1139SOL    HW214097   0.270   4.866   3.118
 1140SOL     OW14098   8.453   1.723   2.490
 1140SOL    HW114099   8.354   1.723   2.504
 1140SOL    HW214100   8.483   1.815   2.464
 1141SOL     OW14101   0.399   0.325   1.575
 1141SOL    HW114102   0.422   0.403   1.632
 1141SOL    HW214103   0.440   0.337   1.484
 1142SOL     OW14104   4.075   0.055   0.768
 1142SOL    HW114105   4.115   0.138   0.809
 1142SOL    HW214106   4.137   9.978   0.784
 1143SOL     OW14107   3.558   1.730   3.884
 1143SOL    HW114108   3.589   1.668   3.812
 1143SOL    HW214109   3.634   1.790   3.911
 1144SOL     OW14110   1.888   8.522   0.691
 1144SOL    HW114111   1.888   8.555   0.786
 1144SOL    HW214112   1.835   8.586   0.635
 1145SOL     OW14113   7.906   0.922   3.443
 1145SOL    HW114114   7.829   0.928   3.380
 1145SOL    HW214115   7.872   0.927   3.537
 1146SOL     OW14116   7.851   9.378   1.240
 1146SOL    HW114117   7.926   9.385   1.306
 1146SOL    HW214118   7.865   9.297   1.183
 1147SOL     OW14119   1.249   2.221   3.010
 1147SOL    HW114120   1.176   2.219   3.078
 1147SOL    HW214121   1.248   2.136   2.958
 1148SOL     OW14122   1.973   6.070   1.129
 1148SOL    HW114123   1.908   6.042   1.199
 1148SOL    HW214124   2.063   6.029   1.148
 1149SOL     OW14125   2.603   1.665   0.743
 1149SOL    HW114126   2.697   1.682   0.712
 1149SOL    HW214127   2.542   1.664   0.664
 1150SOL     OW14128   2.589   0.051   2.025
 1150SOL    HW114129   2.689   0.056   2.021
 1150SOL    HW214130   2.549   0.129   1.977
 1151SOL     OW14131   0.454   8.912   4.167
 1151SOL    HW114132   0.548   8.907   4.203
 1151SOL    HW214133   0.437   8.832   4.109
 1152SOL     OW14134   2.842   0.210   1.244
 1152SOL    HW114135   2.862   0.261   1.160
 1152SOL    HW214136   2.846   0.112   1.225
 1153SOL     OW14137   3.537   7.994   1.868
 1153SOL    HW114138   3.448   8.041   1.868
 1153SOL    HW214139   3.523   7.897   1.849
 1154SOL     OW14140   4.371   0.651   3.693
 1154SOL    HW114141   4.345   0.555   3.684
 1154SOL    HW214142   4.293   0.709   3.669
 1155SOL     OW14143   0.938   4.989   2.471
 1155SOL    HW114144   0.898   4.897   2.463
 1155SOL    HW214145   0.992   5.009   2.389
 1156SOL     OW14146   5.420   7.345   3.098
 1156SOL    HW114147   5.515   7.374   3.108
 1156SOL    HW214148   5.383   7.380   3.012
 1157SOL     OW14149   6.519   0.625   3.441
 1157SOL    HW114150   6.566   0.558   3.498
 1157SOL    HW214151   6.584   0.694   3.409
 1158SOL     OW14152   2.297   0.372   1.012
 1158SOL    HW114153   2.328   0.318   0.934
 1158SOL    HW214154   2.297   0.316   1.094
 1159SOL     OW14155   8.419   4.932   2.419
 1159SOL    HW114156   8.505   4.923   2.369
 1159SOL    HW214157   8.428   5.000   2.490
 1160SOL     OW14158   0.061   7.025   3.126
 1160SOL    HW114159   9.980   7.042   3.181
 1160SOL    HW214160   0.138   7.078   3.162
 1161SOL     OW14161   5.720   9.896   3.659
 1161SOL    HW114162   5.754   9.989   3.650
 1161SOL    HW214163   5.758   9.839   3.586
 1162SOL     OW14164   2.712   6.609   3.414
 1162SOL    HW114165   2.676   6.658   3.493
 1162SOL    HW214166   2.772   6.669   3.361
 1163SOL     OW14167   8.879   2.058   4.416
 1163SOL    HW114168   8.921   1.970   4.391
 1163SOL    HW214169   8.946   2.131   4.407
 1164SOL     OW14170   2.558   7.071   2.445
 1164SOL    HW114171   2.526   7.014   2.369
 1164SOL    HW214172   2.499   7.056   2.524
 1165SOL     OW14173   9.364   7.895   1.301
 1165SOL    HW114174   9.349   7.892   1.202
 1165SOL    HW214175   9.421   7.818   1.329
 1166SOL     OW14176   3.737   0.751   0.349
 1166SOL    HW114177   3.642   0.781   0.362
 1166SOL    HW214178   3.793   0.830   0.325
 1167SOL     OW14179   2.738   4.839   3.602
 1167SOL    HW114180   2.730   4.744   3.631
 1167SOL    HW214181   2.759   4.842   3.505
 1168SOL     OW14182   1.095   7.543   1.562
 1168SOL    HW114183   1.013   7.521   1.510
 1168SOL    HW214184   1.161   7.468   1.555
 1169SOL     OW14185   4.704   8.864   4.307
 1169SOL    HW114186   4.612   8.835   4.284
 1169SOL    HW214187   4.701   8.950   4.358
 1170SOL     OW14188   3.146   3.179   3.395
 1170SOL    HW114189   3.128   3.146   3.488
 1170SOL    HW214190   3.132   3.104   3.330
 1171SOL     OW14191   9.100   1.095   1.772
 1171SOL    HW114192   9.047   1.136   1.698
 1171SOL    HW214193   9.065   1.004   1.792
 1172SOL     OW14194   9.936   4.877   2.162
 1172SOL    HW114195   0.022   4.902   2.208
 1172SOL    HW214196   9.941   4.782   2.131
 1173SOL     OW14197   8.436   4.464   3.254
 1173SOL    HW114198   8.355   4.465   3.195
 1173SOL    HW214199   8.449   4.372   3.291
 1174SOL     OW14200   7.235   1.276   2.326
 1174SOL    HW114201   7.149   1.294   2.278
 1174SOL    HW214202   7.219   1.211   2.401
 1175SOL     OW14203   7.583   2.087   3.088
 1175SOL    HW114204   7.640   2.074   3.169
 1175SOL    HW214205   7.491   2.113   3.117
 1176SOL     OW14206   8.168   6.288   3.492
 1176SOL    HW114207   8.106   6.224   3.538
 1176SOL    HW214208   8.114   6.350   3.434
 1177SOL     OW14209   2.346   7.379   0.247
 1177SOL    HW114210   2.337   7.286   0.210
 1177SOL    HW214211   2.440   7.392   0.279
 1178SOL     OW14212   1.661   4.852   1.723
 1178SOL    HW114213   1.729   4.813   1.787
 1178SOL    HW214214   1.569   4.832   1.757
 1179SOL     OW14215   2.734   8.181   3.990
 1179SOL    HW114216   2.813   8.241   3.978
 1179SOL    HW214217   2.678   8.182   3.907
 1180SOL     OW14218   2.478   4.601   2.928
 1180SOL    HW114219   2.520   4.528   2.982
 1180SOL    HW214220   2.381   4.582   2.916
 1181SOL     OW14221   4.584   8.535   0.495
 1181SOL    HW114222   4.575   8.564   0.400
 1181SOL    HW214223   4.632   8.447   0.499
 1182SOL     OW14224   0.027   2.388   1.797
 1182SOL    HW114225   9.940   2.436   1.804
 1182SOL    HW214226   0.063   2.400   1.704
 1183SOL     OW14227   9.234   8.158   3.854
 1183SOL    HW114228   9.278   8.122   3.772
 1183SOL    HW214229   9.190   8.083   3.904
 1184SOL     OW14230   1.412   8.076   2.288
 1184SOL    HW114231   1.432   8.050   2.193
 1184SOL    HW214232   1.483   8.138   2.321
 1185SOL     OW14233   1.578   6.946   0.661
 1185SOL    HW114234   1.500   6.941   0.598
 1185SOL    HW214235   1.624   7.034   0.651
 1186SOL     OW14236   2.593   5.183   2.969
 1186SOL    HW114237   2.580   5.212   2.874
 1186SOL    HW214238   2.655   5.105   2.973
 1187SOL     OW14239   8.824   5.610   2.598
 1187SOL    HW114240   8.775   5.567   2.522
 1187SOL    HW214241   8.912   5.645   2.566
 1188SOL     OW14242   9.936   4.021   1.188
 1188SOL    HW114243   9.914   4.074   1.270
 1188SOL    HW214244   9.905   4.072   1.107
 1189SOL     OW14245   9.002   9.725   1.009
 1189SOL    HW114246   8.936   9.730   1.084
 1189SOL    HW214247   8.954   9.711   0.923
 1190SOL     OW14248   4.502   3.702   3.490
 1190SOL    HW114249   4.476   3.616   3.445
 1190SOL    HW214250   4.443   3.716   3.570
 1191SOL     OW14251   1.794   0.925   0.641
 1191SOL    HW114252   1.779   0.989   0.566
 1191SOL    HW214253   1.770   0.968   0.728
 1192SOL     OW14254   2.147   7.908   0.174
 1192SOL    HW114255   2.091   7.826   0.165
 1192SOL    HW214256   2.143   7.942   0.268
 1193SOL     OW14257   0.482   3.864   0.604
 1193SOL    HW114258   0.413   3.850   0.533
 1193SOL    HW214259   0.508   3.961   0.607
 1194SOL     OW14260   1.151   9.234   0.833
 1194SOL    HW114261   1.088   9.177   0.886
 1194SOL    HW214262   1.112   9.250   0.742
 1195SOL     OW14263   0.865   8.782   2.180
 1195SOL    HW114264   0.769   8.756   2.187
 1195SOL    HW214265   0.896   8.818   2.268
 1196SOL     OW14266   2.381   5.414   2.188
 1196SOL    HW114267   2.455   5.348   2.176
 1196SOL    HW214268   2.321   5.383   2.261
 1197SOL     OW14269   1.899   4.726   2.291
 1197SOL    HW114270   1.816   4.770   2.256
 1197SOL    HW214271   1.939   4.667   2.221
 1198SOL     OW14272   6.810   9.153   1.191
 1198SOL    HW114273   6.846   9.246   1.196
 1198SOL    HW214274   6.710   9.156   1.189
 1199SOL     OW14275   2.415   9.009   3.711
 1199SOL    HW114276   2.335   9.009   3.651
 1199SOL    HW214277   2.392   8.966   3.798
 1200SOL     OW14278   5.165   3.243   0.501
 1200SOL    HW114279   5.261   3.262   0.482
 1200SOL    HW214280   5.125   3.320   0.550
 1201SOL     OW14281   0.645   3.183   2.841
 1201SOL    HW114282   0.550   3.170   2.814
 1201SOL    HW214283   0.659   3.145   2.932
 1202SOL     OW14284   4.219   2.548   1.365
 1202SOL    HW114285   4.277   2.557   1.446
 1202SOL    HW214286   4.183   2.638   1.340
 1203SOL     OW14287   0.541   1.484   1.445
 1203SOL    HW114288   0.567   1.507   1.538
 1203SOL    HW214289   0.559   1.387   1.429
 1204SOL     OW14290   7.461   8.446   4.244
 1204SOL    HW114291   7.453   8.426   4.146
 1204SOL    HW214292   7.370   8.447   4.285
 1205SOL     OW14293   1.785   4.391   2.159
 1205SOL    HW114294   1.690   4.410   2.184
 1205SOL    HW214295   1.787   4.314   2.095
 1206SOL     OW14296   0.657   0.277   2.662
 1206SOL    HW114297   0.562   0.246   2.667
 1206SOL    HW214298   0.695   0.249   2.574
 1207SOL     OW14299   5.870   1.159   2.565
 1207SOL    HW114300   5.967   1.150   2.541
 1207SOL    HW214301   5.823   1.072   2.547
 1208SOL     OW14302   5.781   6.777   2.652
 1208SOL    HW114303   5.768   6.678   2.651
 1208SOL    HW214304   5.724   6.817   2.724
 1209SOL     OW14305   6.289   9.298   2.080
 1209SOL    HW114306   6.192   9.302   2.104
 1209SOL    HW214307   6.343   9.340   2.153
 1210SOL     OW14308   4.429   0.767   3.940
 1210SOL    HW114309   4.405   0.706   3.864
 1210SOL    HW214310   4.485   0.842   3.906
 1211SOL     OW14311   4.553   6.575   2.699
 1211SOL    HW114312   4.527   6.487   2.739
 1211SOL    HW214313   4.503   6.648   2.746
 1212SOL     OW14314   3.565   1.092   4.194
 1212SOL    HW114315   3.562   1.169   4.257
 1212SOL    HW214316   3.659   1.074   4.166
 1213SOL     OW14317   1.533   5.700   0.897
 1213SOL    HW114318   1.467   5.769   0.867
 1213SOL    HW214319   1.567   5.650   0.817
 1214SOL     OW14320   8.000   1.794   3.087
 1214SOL    HW114321   7.975   1.707   3.045
 1214SOL    HW214322   8.047   1.851   3.020
 1215SOL     OW14323   6.300   0.470   0.661
 1215SOL    HW114324   6.340   0.395   0.713
 1215SOL    HW214325   6.371   0.515   0.607
 1216SOL     OW14326   0.129   8.119   3.535
 1216SOL    HW114327   0.110   8.217   3.539
 1216SOL    HW214328   0.069   8.076   3.468
 1217SOL     OW14329   9.317   5.907   3.170
 1217SOL    HW114330   9.261   5.962   3.232
 1217SOL    HW214331   9.294   5.929   3.076
 1218SOL     OW14332   0.253   4.618   2.842
 1218SOL    HW114333   0.164   4.637   2.883
 1218SOL    HW214334   0.271   4.519   2.846
 1219SOL     OW14335   7.021   1.450   3.106
 1219SOL    HW114336   7.011   1.533   3.050
 1219SOL    HW214337   7.079   1.385   3.059
 1220SOL     OW14338   9.464   2.238   0.135
 1220SOL    HW114339   9.480   2.337   0.135
 1220SOL    HW214340   9.516   2.197   0.060
 1221SOL     OW14341   9.581   7.078   3.612
 1221SOL    HW114342   9.507   7.020   3.579
 1221SOL    HW214343   9.574   7.168   3.571
 1222SOL     OW14344   9.392   9.069   2.760
 1222SOL    HW114345   9.420   9.129   2.686
 1222SOL    HW214346   9.409   8.974   2.734
 1223SOL     OW14347   0.927   5.604   1.374
 1223SOL    HW114348   0.879   5.522   1.405
 1223SOL    HW214349   1.022   5.581   1.353
 1224SOL     OW14350   4.439   2.041   2.691
 1224SOL    HW114351   4.523   2.067   2.739
 1224SOL    HW214352   4.363   2.096   2.725
 1225SOL     OW14353   2.743   4.324   2.215
 1225SOL    HW114354   2.807   4.383   2.166
 1225SOL    HW214355   2.783   4.298   2.303
 1226SOL     OW14356   1.425   9.061   1.481
 1226SOL    HW114357   1.435   8.971   1.439
 1226SOL    HW214358   1.356   9.056   1.554
 1227SOL     OW14359   2.149   0.826   3.489
 1227SOL    HW114360   2.171   0.912   3.442
 1227SOL    HW214361   2.199   0.823   3.576
 1228SOL     OW14362   1.093   1.046   4.197
 1228SOL    HW114363   1.054   1.109   4.264
 1228SOL    HW214364   1.024   1.027   4.126
 1229SOL     OW14365   4.553   0.494   1.726
 1229SOL    HW114366   4.467   0.505   1.776
 1229SOL    HW214367   4.629   0.493   1.791
 1230SOL     OW14368   3.727   0.341   3.317
 1230SOL    HW114369   3.817   0.303   3.295
 1230SOL    HW214370   3.669   0.269   3.354
 1231SOL     OW14371   8.783   1.519   1.020
 1231SOL    HW114372   8.779   1.421   0.998
 1231SOL    HW214373   8.870   1.556   0.988
 1232SOL     OW14374   0.536   1.857   3.839
 1232SOL    HW114375   0.594   1.934   3.809
 1232SOL    HW214376   0.586   1.772   3.826
 1233SOL     OW14377   1.589   5.311   4.335
 1233SOL    HW114378   1.543   5.391   4.375
 1233SOL    HW214379   1.596   5.239   4.405
 1234SOL     OW14380   0.861   7.626   2.822
 1234SOL    HW114381   0.922   7.602   2.747
 1234SOL    HW214382   0.796   7.696   2.791
 1235SOL     OW14383   9.302   1.323   2.517
 1235SOL    HW114384   9.384   1.273   2.488
 1235SOL    HW214385   9.315   1.421   2.501
 1236SOL     OW14386   0.896   3.463   3.942
 1236SOL    HW114387   0.824   3.467   4.010
 1236SOL    HW214388   0.976   3.513   3.975
 1237SOL     OW14389   0.283   6.178   3.951
 1237SOL    HW114390   0.341   6.256   3.975
 1237SOL    HW214391   0.199   6.211   3.908
 1238SOL     OW14392   7.346   8.092   2.178
 1238SOL    HW114393   7.318   8.161   2.110
 1238SOL    HW214394   7.394   8.137   2.253
 1239SOL     OW14395   3.866   1.301   4.081
 1239SOL    HW114396   3.864   1.316   3.983
 1239SOL    HW214397   3.801   1.362   4.126
 1240SOL     OW14398   9.313   6.968   2.177
 1240SOL    HW114399   9.411   6.981   2.162
 1240SOL    HW214400   9.263   7.046   2.138
 1241SOL     OW14401   0.839   6.626   3.599
 1241SOL    HW114402   0.775   6.550   3.615
 1241SOL    HW214403   0.804   6.683   3.525
 1242SOL     OW14404   1.789   3.222   1.223
 1242SOL    HW114405   1.704   3.193   1.179
 1242SOL    HW214406   1.807   3.318   1.200
 1243SOL     OW14407   2.894   4.857   3.827
 1243SOL    HW114408   2.834   4.829   3.902
 1243SOL    HW214409   2.841   4.858   3.742
 1244SOL     OW14410   3.866   3.194   3.017
 1244SOL    HW114411   3.831   3.121   2.959
 1244SOL    HW214412   3.800   3.269   3.020
 1245SOL     OW14413   4.482   2.969   0.537
 1245SOL    HW114414   4.509   3.027   0.460
 1245SOL    HW214415   4.384   2.954   0.534
 1246SOL     OW14416   2.956   7.213   3.252
 1246SOL    HW114417   3.027   7.151   3.285
 1246SOL    HW214418   2.940   7.196   3.155
 1247SOL     OW14419   9.576   8.536   0.713
 1247SOL    HW114420   9.564   8.457   0.774
 1247SOL    HW214421   9.493   8.591   0.712
 1248SOL     OW14422   2.931   0.299   3.432
 1248SOL    HW114423   2.943   0.357   3.351
 1248SOL    HW214424   2.938   0.203   3.405
 1249SOL     OW14425   9.478   6.241   4.042
 1249SOL    HW114426   9.441   6.192   3.963
 1249SOL    HW214427   9.427   6.326   4.055
 1250SOL     OW14428   8.053   4.367   0.254
 1250SOL    HW114429   8.012   4.391   0.166
 1250SOL    HW214430   7.982   4.330   0.314
 1251SOL     OW14431   8.887   7.144   1.125
 1251SOL    HW114432   8.881   7.232   1.077
 1251SOL    HW214433   8.951   7.084   1.078
 1252SOL     OW14434   3.847   3.532   3.211
 1252SOL    HW114435   3.779   3.565   3.276
 1252SOL    HW214436   3.934   3.579   3.228
 1253SOL     OW14437   7.852   9.139   1.497
 1253SOL    HW114438   7.760   9.122   1.531
 1253SOL    HW214439   7.889   9.222   1.539
 1254SOL     OW14440   2.311   4.203   3.196
 1254SOL    HW114441   2.219   4.241   3.206
 1254SOL    HW214442   2.311   4.134   3.124
 1255SOL     OW14443   0.471   3.445   3.917
 1255SOL    HW114444   0.558   3.442   3.967
 1255SOL    HW214445   0.469   3.525   3.858
 1256SOL     OW14446   7.322   0.478   2.071
 1256SOL    HW114447   7.379   0.505   2.148
 1256SOL    HW214448   7.326   0.548   2.000
 1257SOL     OW14449   8.358   3.007   0.933
 1257SOL    HW114450   8.385   3.098   0.902
 1257SOL    HW214451   8.273   2.980   0.887
 1258SOL     OW14452   8.758   8.188   2.597
 1258SOL    HW114453   8.778   8.114   2.661
 1258SOL    HW214454   8.708   8.260   2.645
 1259SOL     OW14455   9.811   1.889   1.395
 1259SOL    HW114456   9.789   1.834   1.477
 1259SOL    HW214457   9.897   1.938   1.410
 1260SOL     OW14458   2.707   9.726   0.464
 1260SOL    HW114459   2.748   9.651   0.411
 1260SOL    HW214460   2.610   9.734   0.442
 1261SOL     OW14461   3.636   8.378   3.419
 1261SOL    HW114462   3.539   8.391   3.394
 1261SOL    HW214463   3.682   8.329   3.345
 1262SOL     OW14464   3.226   1.890   0.470
 1262SOL    HW114465   3.168   1.905   0.549
 1262SOL    HW214466   3.298   1.960   0.468
 1263SOL     OW14467   8.400   4.631   1.015
 1263SOL    HW114468   8.359   4.561   1.075
 1263SOL    HW214469   8.328   4.686   0.974
 1264SOL     OW14470   9.175   1.786   2.497
 1264SOL    HW114471   9.076   1.794   2.501
 1264SOL    HW214472   9.217   1.853   2.558
 1265SOL     OW14473   2.520   1.368   3.976
 1265SOL    HW114474   2.474   1.423   4.046
 1265SOL    HW214475   2.596   1.420   3.937
 1266SOL     OW14476   9.162   8.418   3.807
 1266SOL    HW114477   9.188   8.322   3.819
 1266SOL    HW214478   9.099   8.425   3.729
 1267SOL     OW14479   3.561   0.623   1.196
 1267SOL    HW114480   3.566   0.603   1.098
 1267SOL    HW214481   3.637   0.577   1.243
 1268SOL     OW14482   1.172   0.195   1.327
 1268SOL    HW114483   1.156   0.293   1.340
 1268SOL    HW214484   1.228   0.181   1.245
 1269SOL     OW14485   0.055   4.310   1.078
 1269SOL    HW114486   0.076   4.279   1.171
 1269SOL    HW214487   9.972   4.264   1.046
 1270SOL     OW14488   4.957   9.574   1.388
 1270SOL    HW114489   4.927   9.561   1.482
 1270SOL    HW214490   4.980   9.485   1.348
 1271SOL     OW14491   1.751   5.451   3.235
 1271SOL    HW114492   1.677   5.499   3.283
 1271SOL    HW214493   1.737   5.458   3.136
 1272SOL     OW14494   3.670   6.124   0.802
 1272SOL    HW114495   3.672   6.063   0.880
 1272SOL    HW214496   3.588   6.181   0.806
 1273SOL     OW14497   8.175   0.067   0.696
 1273SOL    HW114498   8.198   0.127   0.773
 1273SOL    HW214499   8.255   0.055   0.639
 1274SOL     OW14500   9.885   4.603   0.829
 1274SOL    HW114501   9.801   4.654   0.813
 1274SOL    HW214502   9.876   4.511   0.790
 1275SOL     OW14503   5.402   8.685   2.450
 1275SOL    HW114504   5.364   8.595   2.468
 1275SOL    HW214505   5.390   8.708   2.353
 1276SOL     OW14506   1.430   3.930   4.008
 1276SOL    HW114507   1.395   3.879   3.929
 1276SOL    HW214508   1.452   4.023   3.980
 1277SOL     OW14509   6.956   0.261   3.304
 1277SOL    HW114510   7.013   0.343   3.303
 1277SOL    HW214511   6.860   0.287   3.313
 1278SOL     OW14512   9.320   3.863   0.405
 1278SOL    HW114513   9.368   3.919   0.338
 1278SOL    HW214514   9.225   3.851   0.377
 1279SOL     OW14515   0.091   0.471   1.267
 1279SOL    HW114516   0.099   0.374   1.246
 1279SOL    HW214517   0.071   0.483   1.364
 1280SOL     OW14518   7.643   1.263   0.546
 1280SOL    HW114519   7.699   1.186   0.576
 1280SOL    HW214520   7.685   1.349   0.574
 1281SOL     OW14521   1.846   7.003   3.045
 1281SOL    HW114522   1.916   7.069   3.019
 1281SOL    HW214523   1.798   7.035   3.126
 1282SOL     OW14524   1.604   2.399   4.190
 1282SOL    HW114525   1.597   2.302   4.164
 1282SOL    HW214526   1.699   2.420   4.214
 1283SOL     OW14527   2.971   7.469   0.703
 1283SOL    HW114528   2.969   7.376   0.665
 1283SOL    HW214529   2.944   7.466   0.799
 1284SOL     OW14530   2.523   0.852   4.296
 1284SOL    HW114531   2.452   0.782   4.300
 1284SOL    HW214532   2.488   0.933   4.251
 1285SOL     OW14533   9.323   4.279   1.650
 1285SOL    HW114534   9.267   4.224   1.712
 1285SOL    HW214535   9.407   4.306   1.697
 1286SOL     OW14536   7.712   0.876   4.173
 1286SOL    HW114537   7.722   0.777   4.180
 1286SOL    HW214538   7.779   0.921   4.231
 1287SOL     OW14539   0.808   1.793   3.451
 1287SOL    HW114540   0.708   1.797   3.451
 1287SOL    HW214541   0.840   1.750   3.367
 1288SOL     OW14542   8.079   9.810   2.722
 1288SOL    HW114543   8.021   9.832   2.800
 1288SOL    HW214544   8.167   9.856   2.732
 1289SOL     OW14545   9.812   8.200   0.749
 1289SOL    HW114546   9.756   8.174   0.828
 1289SOL    HW214547   9.753   8.237   0.677
 1290SOL     OW14548   2.263   6.854   3.937
 1290SOL    HW114549   2.271   6.942   3.890
 1290SOL    HW214550   2.173   6.815   3.919
 1291SOL     OW14551   4.728   2.671   0.390
 1291SOL    HW114552   4.630   2.670   0.371
 1291SOL    HW214553   4.776   2.622   0.317
 1292SOL     OW14554   7.611   4.982   0.503
 1292SOL    HW114555   7.576   5.051   0.440
 1292SOL    HW214556   7.548   4.904   0.505
 1293SOL     OW14557   1.462   8.148   4.393
 1293SOL    HW114558   1.530   8.209   4.351
 1293SOL    HW214559   1.440   8.182   4.484
 1294SOL     OW14560   0.636   3.329   3.583
 1294SOL    HW114561   0.646   3.377   3.496
 1294SOL    HW214562   0.681   3.240   3.578
 1295SOL     OW14563   3.683   4.351   0.126
 1295SOL    HW114564   3.678   4.336   0.027
 1295SOL    HW214565   3.611   4.414   0.154
 1296SOL     OW14566   8.402   3.714   2.982
 1296SOL    HW114567   8.372   3.634   3.035
 1296SOL    HW214568   8.333   3.786   2.989
 1297SOL     OW14569   4.675   4.171   1.405
 1297SOL    HW114570   4.723   4.151   1.320
 1297SOL    HW214571   4.600   4.236   1.388
 1298SOL     OW14572   9.952   9.475   3.631
 1298SOL    HW114573   9.978   9.542   3.700
 1298SOL    HW214574   0.012   9.395   3.638
 1299SOL     OW14575   1.780   5.889   3.517
 1299SOL    HW114576   1.799   5.845   3.605
 1299SOL    HW214577   1.794   5.987   3.526
 1300SOL     OW14578   1.926   7.975   0.876
 1300SOL    HW114579   1.969   8.019   0.797
 1300SOL    HW214580   1.848   7.920   0.846
 1301SOL     OW14581   4.834   3.370   3.578
 1301SOL    HW114582   4.850   3.400   3.484
 1301SOL    HW214583   4.829   3.450   3.638
 1302SOL     OW14584   8.251   3.607   2.594
 1302SOL    HW114585   8.208   3.696   2.580
 1302SOL    HW214586   8.340   3.620   2.639
 1303SOL     OW14587   8.806   0.640   1.034
 1303SOL    HW114588   8.725   0.582   1.027
 1303SOL    HW214589   8.875   0.594   1.089
 1304SOL     OW14590   3.513   8.014   4.145
 1304SOL    HW114591   3.573   7.938   4.169
 1304SOL    HW214592   3.419   7.982   4.137
 1305SOL     OW14593   4.320   6.704   2.085
 1305SOL    HW114594   4.307   6.606   2.070
 1305SOL    HW214595   4.409   6.732   2.050
 1306SOL     OW14596   8.337   1.972   3.924
 1306SOL    HW114597   8.374   2.061   3.895
 1306SOL    HW214598   8.243   1.964   3.892
 1307SOL     OW14599   1.346   8.818   0.797
 1307SOL    HW114600   1.366   8.738   0.853
 1307SOL    HW214601   1.425   8.840   0.740
 1308SOL     OW14602   0.940   9.008   1.418
 1308SOL    HW114603   0.852   9.054   1.423
 1308SOL    HW214604   0.930   8.921   1.371
 1309SOL     OW14605   7.765   8.405   3.375
 1309SOL    HW114606   7.707   8.380   3.297
 1309SOL    HW214607   7.713   8.396   3.460
 1310SOL     OW14608   6.821   1.200   2.373
 1310SOL    HW114609   6.840   1.219   2.469
 1310SOL    HW214610   6.788   1.107   2.364
 1311SOL     OW14611   8.399   6.044   1.510
 1311SOL    HW114612   8.420   5.959   1.559
 1311SOL    HW214613   8.326   6.093   1.558
 1312SOL     OW14614   3.180   4.134   2.783
 1312SOL    HW114615   3.135   4.054   2.823
 1312SOL    HW214616   3.194   4.118   2.685
 1313SOL     OW14617   0.030   5.576   4.093
 1313SOL    HW114618   0.101   5.542   4.154
 1313SOL    HW214619   0.038   5.531   4.004
 1314SOL     OW14620   2.852   1.210   0.387
 1314SOL    HW114621   2.939   1.236   0.430
 1314SOL    HW214622   2.865   1.129   0.331
 1315SOL     OW14623   6.623   7.729   3.398
 1315SOL    HW114624   6.566   7.671   3.456
 1315SOL    HW214625   6.714   7.687   3.390
 1316SOL     OW14626   3.071   0.390   2.812
 1316SOL    HW114627   3.111   0.360   2.899
 1316SOL    HW214628   3.070   0.490   2.808
 1317SOL     OW14629   0.937   0.249   0.236
 1317SOL    HW114630   0.899   0.162   0.267
 1317SOL    HW214631   0.940   0.250   0.136
 1318SOL     OW14632   9.399   3.953   0.649
 1318SOL    HW114633   9.492   3.916   0.653
 1318SOL    HW214634   9.353   3.917   0.568
 1319SOL     OW14635   7.868   6.278   2.601
 1319SOL    HW114636   7.926   6.349   2.560
 1319SOL    HW214637   7.919   6.229   2.671
 1320SOL     OW14638   2.654   1.892   1.451
 1320SOL    HW114639   2.646   1.950   1.369
 1320SOL    HW214640   2.740   1.911   1.497
 1321SOL     OW14641   8.684   0.619   2.749
 1321SOL    HW114642   8.730   0.532   2.761
 1321SOL    HW214643   8.722   0.667   2.670
 1322SOL     OW14644   9.372   6.487   4.130
 1322SOL    HW114645   9.329   6.440   4.207
 1322SOL    HW214646   9.444   6.548   4.164
 1323SOL     OW14647   0.155   3.125   1.087
 1323SOL    HW114648   0.128   3.032   1.062
 1323SOL    HW214649   0.079   3.188   1.070
 1324SOL     OW14650   0.226   0.671   3.909
 1324SOL    HW114651   0.286   0.743   3.875
 1324SOL    HW214652   0.216   0.600   3.839
 1325SOL     OW14653   7.456   4.426   0.235
 1325SOL    HW114654   7.421   4.490   0.167
 1325SOL    HW214655   7.518   4.475   0.297
 1326SOL     OW14656   8.989   9.246   3.949
 1326SOL    HW114657   8.958   9.337   3.978
 1326SOL    HW214658   9.059   9.255   3.879
 1327SOL     OW14659   8.502   2.460   2.038
 1327SOL    HW114660   8.486   2.362   2.048
 1327SOL    HW214661   8.416   2.507   2.022
 1328SOL     OW14662   6.676   7.243   2.168
 1328SOL    HW114663   6.669   7.236   2.068
 1328SOL    HW214664   6.626   7.323   2.199
 1329SOL     OW14665   3.346   8.181   3.893
 1329SOL    HW114666   3.413   8.239   3.940
 1329SOL    HW214667   3.270   8.236   3.861
 1330SOL     OW14668   8.257   5.488   3.011
 1330SOL    HW114669   8.342   5.491   3.063
 1330SOL    HW214670   8.186   5.540   3.060
 1331SOL     OW14671   7.842   8.675   1.690
 1331SOL    HW114672   7.922   8.664   1.748
 1331SOL    HW214673   7.869   8.668   1.594
 1332SOL     OW14674   8.506   3.502   0.553
 1332SOL    HW114675   8.475   3.549   0.636
 1332SOL    HW214676   8.466   3.410   0.551
 1333SOL     OW14677   5.091   4.243   0.682
 1333SOL    HW114678   5.052   4.186   0.609
 1333SOL    HW214679   5.155   4.188   0.736
 1334SOL     OW14680   8.050   0.406   3.476
 1334SOL    HW114681   8.124   0.339   3.482
 1334SOL    HW214682   8.084   0.487   3.428
 1335SOL     OW14683   9.418   4.312   3.564
 1335SOL    HW114684   9.380   4.236   3.615
 1335SOL    HW214685   9.435   4.389   3.626
 1336SOL     OW14686   8.272   3.402   4.364
 1336SOL    HW114687   8.253   3.496   4.335
 1336SOL    HW214688   8.186   3.352   4.373
 1337SOL     OW14689   0.802   6.817   2.492
 1337SOL    HW114690   0.802   6.756   2.571
 1337SOL    HW214691   0.732   6.887   2.503
 1338SOL     OW14692   5.328   7.381   1.668
 1338SOL    HW114693   5.368   7.290   1.658
 1338SOL    HW214694   5.373   7.428   1.744
 1339SOL     OW14695   1.228   7.382   2.581
 1339SOL    HW114696   1.214   7.323   2.501
 1339SOL    HW214697   1.225   7.327   2.664
 1340SOL     OW14698   3.691   9.032   2.786
 1340SOL    HW114699   3.696   8.936   2.762
 1340SOL    HW214700   3.638   9.082   2.717
 1341SOL     OW14701   2.859   3.190   0.689
 1341SOL    HW114702   2.769   3.157   0.717
 1341SOL    HW214703   2.867   3.184   0.589
 1342SOL     OW14704   8.605   9.659   2.953
 1342SOL    HW114705   8.665   9.739   2.943
 1342SOL    HW214706   8.628   9.611   3.038
 1343SOL     OW14707   7.980   9.154   4.220
 1343SOL    HW114708   7.907   9.118   4.277
 1343SOL    HW214709   7.946   9.170   4.127
 1344SOL     OW14710   1.007   5.654   1.832
 1344SOL    HW114711   0.941   5.594   1.788
 1344SOL    HW214712   0.965   5.743   1.849
 1345SOL     OW14713   2.997   8.911   1.569
 1345SOL    HW114714   3.046   8.939   1.652
 1345SOL    HW214715   2.970   8.992   1.517
 1346SOL     OW14716   0.783   2.362   2.768
 1346SOL    HW114717   0.717   2.407   2.708
 1346SOL    HW214718   0.766   2.389   2.863
 1347SOL     OW14719   3.353   7.640   1.019
 1347SOL    HW114720   3.315   7.728   0.990
 1347SOL    HW214721   3.335   7.571   0.949
 1348SOL     OW14722   5.304   4.055   2.308
 1348SOL    HW114723   5.281   3.974   2.254
 1348SOL    HW214724   5.248   4.058   2.390
 1349SOL     OW14725   0.585   2.181   4.168
 1349SOL    HW114726   0.579   2.096   4.220
 1349SOL    HW214727   0.526   2.175   4.087
 1350SOL     OW14728   8.794   9.586   1.804
 1350SOL    HW114729   8.891   9.566   1.822
 1350SOL    HW214730   8.787   9.642   1.721
 1351SOL     OW14731   5.002   0.379   1.914
 1351SOL    HW114732   5.049   0.303   1.957
 1351SOL    HW214733   5.039   0.396   1.823
 1352SOL     OW14734   1.104   2.913   0.627
 1352SOL    HW114735   1.163   2.927   0.707
 1352SOL    HW214736   1.145   2.957   0.547
 1353SOL     OW14737  10.000   6.420   2.963
 1353SOL    HW114738   9.975   6.372   2.878
 1353SOL    HW214739   0.021   6.516   2.942
 1354SOL     OW14740   7.589   9.089   1.571
 1354SOL    HW114741   7.603   9.005   1.623
 1354SOL    HW214742   7.503   9.083   1.521
 1355SOL     OW14743   7.348   0.743   2.687
 1355SOL    HW114744   7.386   0.749   2.595
 1355SOL    HW214745   7.249   0.728   2.682
 1356SOL     OW14746   7.001   7.201   3.381
 1356SOL    HW114747   6.986   7.289   3.335
 1356SOL    HW214748   7.025   7.216   3.477
 1357SOL     OW14749   8.702   8.264   1.378
 1357SOL    HW114750   8.702   8.171   1.415
 1357SOL    HW214751   8.621   8.278   1.322
 1358SOL     OW14752   2.329   8.545   3.445
 1358SOL    HW114753   2.266   8.606   3.397
 1358SOL    HW214754   2.413   8.534   3.391
 1359SOL     OW14755   7.814   9.527   1.008
 1359SOL    HW114756   7.841   9.479   1.092
 1359SOL    HW214757   7.739   9.477   0.964
 1360SOL     OW14758   0.503   9.176   1.706
 1360SOL    HW114759   0.537   9.086   1.680
 1360SOL    HW214760   0.403   9.175   1.705
 1361SOL     OW14761   9.970   3.067   1.706
 1361SOL    HW114762   9.976   3.001   1.781
 1361SOL    HW214763   9.955   3.018   1.620
 1362SOL     OW14764   5.510   7.018   1.863
 1362SOL    HW114765   5.473   6.968   1.942
 1362SOL    HW214766   5.493   6.965   1.779
 1363SOL     OW14767   7.814   2.554   2.636
 1363SOL    HW114768   7.893   2.604   2.671
 1363SOL    HW214769   7.749   2.619   2.596
 1364SOL     OW14770   9.301   8.636   0.732
 1364SOL    HW114771   9.283   8.592   0.820
 1364SOL    HW214772   9.289   8.735   0.740
 1365SOL     OW14773   1.309   5.006   1.992
 1365SOL    HW114774   1.298   5.093   1.945
 1365SOL    HW214775   1.332   5.022   2.088
 1366SOL     OW14776   8.780   6.836   2.398
 1366SOL    HW114777   8.755   6.930   2.378
 1366SOL    HW214778   8.872   6.833   2.437
 1367SOL     OW14779   3.676   0.913   0.743
 1367SOL    HW114780   3.686   0.922   0.842
 1367SOL    HW214781   3.733   0.837   0.711
 1368SOL     OW14782   1.364   2.351   3.400
 1368SOL    HW114783   1.401   2.306   3.318
 1368SOL    HW214784   1.437   2.399   3.447
 1369SOL     OW14785   3.276   8.091   1.849
 1369SOL    HW114786   3.261   8.082   1.947
 1369SOL    HW214787   3.231   8.173   1.815
 1370SOL     OW14788   3.277   2.758   0.898
 1370SOL    HW114789   3.268   2.761   0.998
 1370SOL    HW214790   3.358   2.808   0.870
 1371SOL     OW14791   6.653   1.040   2.032
 1371SOL    HW114792   6.572   1.092   2.058
 1371SOL    HW214793   6.728   1.104   2.011
 1372SOL     OW14794   8.854   7.611   3.828
 1372SOL    HW114795   8.947   7.596   3.794
 1372SOL    HW214796   8.791   7.621   3.751
 1373SOL     OW14797   4.055   1.618   1.089
 1373SOL    HW114798   4.012   1.551   1.029
 1373SOL    HW214799   4.090   1.572   1.171
 1374SOL     OW14800   2.557   1.570   4.311
 1374SOL    HW114801   2.481   1.526   4.262
 1374SOL    HW214802   2.539   1.668   4.320
 1375SOL     OW14803   1.490   4.138   1.940
 1375SOL    HW114804   1.500   4.094   1.851
 1375SOL    HW214805   1.466   4.235   1.927
 1376SOL     OW14806   8.573   3.746   1.245
 1376SOL    HW114807   8.643   3.779   1.183
 1376SOL    HW214808   8.612   3.735   1.337
 1377SOL     OW14809   5.725   7.923   3.213
 1377SOL    HW114810   5.740   7.970   3.126
 1377SOL    HW214811   5.743   7.986   3.288
 1378SOL     OW14812   2.592   3.113   0.728
 1378SOL    HW114813   2.511   3.138   0.781
 1378SOL    HW214814   2.587   3.155   0.638
 1379SOL     OW14815   7.824   2.441   2.007
 1379SOL    HW114816   7.821   2.385   1.924
 1379SOL    HW214817   7.881   2.521   1.991
 1380SOL     OW14818   8.707   1.976   3.486
 1380SOL    HW114819   8.649   1.898   3.463
 1380SOL    HW214820   8.654   2.060   3.475
 1381SOL     OW14821   0.966   2.729   1.001
 1381SOL    HW114822   1.027   2.752   1.077
 1381SOL    HW214823   0.891   2.795   0.998
 1382SOL     OW14824   7.561   9.859   0.307
 1382SOL    HW114825   7.617   9.874   0.389
 1382SOL    HW214826   7.611   9.801   0.242
 1383SOL     OW14827   6.373   6.981   3.807
 1383SOL    HW114828   6.320   6.905   3.845
 1383SOL    HW214829   6.379   6.972   3.708
 1384SOL     OW14830   0.371   9.167   0.247
 1384SOL    HW114831   0.382   9.158   0.346
 1384SOL    HW214832   0.299   9.232   0.226
 1385SOL     OW14833   9.877   9.702   2.119
 1385SOL    HW114834   9.878   9.708   2.219
 1385SOL    HW214835   9.931   9.777   2.081
 1386SOL     OW14836   2.516   9.662   0.980
 1386SOL    HW114837   2.432   9.690   1.028
 1386SOL    HW214838   2.495   9.643   0.884
 1387SOL     OW14839   3.340   5.584   0.896
 1387SOL    HW114840   3.258   5.638   0.915
 1387SOL    HW214841   3.346   5.508   0.961
 1388SOL     OW14842   2.970   9.296   1.672
 1388SOL    HW114843   2.888   9.290   1.729
 1388SOL    HW214844   3.047   9.251   1.719
 1389SOL     OW14845   4.990   0.536   0.567
 1389SOL    HW114846   4.993   0.601   0.492
 1389SOL    HW214847   4.926   0.462   0.546
 1390SOL     OW14848   2.386   6.499   0.693
 1390SOL    HW114849   2.427   6.571   0.748
 1390SOL    HW214850   2.343   6.538   0.612
 1391SOL     OW14851   9.006   0.005   0.600
 1391SOL    HW114852   9.024   9.907   0.604
 1391SOL    HW214853   8.988   0.040   0.692
 1392SOL     OW14854   5.025   7.573   4.169
 1392SOL    HW114855   5.027   7.518   4.252
 1392SOL    HW214856   5.034   7.670   4.192
 1393SOL     OW14857   2.896   2.127   0.722
 1393SOL    HW114858   2.799   2.116   0.701
 1393SOL    HW214859   2.938   2.190   0.657
 1394SOL     OW14860   1.218   4.360   2.940
 1394SOL    HW114861   1.150   4.288   2.953
 1394SOL    HW214862   1.308   4.319   2.928
 1395SOL     OW14863   8.838   7.999   2.783
 1395SOL    HW114864   8.817   7.903   2.770
 1395SOL    HW214865   8.811   8.027   2.875
 1396SOL     OW14866   2.483   9.087   2.175
 1396SOL    HW114867   2.565   9.034   2.152
 1396SOL    HW214868   2.441   9.049   2.257
 1397SOL     OW14869   4.130   2.835   3.527
 1397SOL    HW114870   4.083   2.802   3.609
 1397SOL    HW214871   4.178   2.920   3.549
 1398SOL     OW14872   1.609   4.710   2.668
 1398SOL    HW114873   1.625   4.613   2.687
 1398SOL    HW214874   1.511   4.728   2.662
 1399SOL     OW14875   6.887   1.303   3.576
 1399SOL    HW114876   6.848   1.218   3.610
 1399SOL    HW214877   6.822   1.378   3.587
 1400SOL     OW14878   7.719   8.934   3.571
 1400SOL    HW114879   7.737   8.988   3.490
 1400SOL    HW214880   7.788   8.862   3.579
 1401SOL     OW14881   9.755   1.165   4.136
 1401SOL    HW114882   9.705   1.180   4.222
 1401SOL    HW214883   9.703   1.103   4.078
 1402SOL     OW14884   0.161   3.511   1.752
 1402SOL    HW114885   0.258   3.514   1.728
 1402SOL    HW214886   0.109   3.471   1.676
 1403SOL     OW14887   3.754   7.849   3.277
 1403SOL    HW114888   3.706   7.888   3.198
 1403SOL    HW214889   3.848   7.830   3.252
 1404SOL     OW14890   4.109   2.234   3.732
 1404SOL    HW114891   4.117   2.184   3.646
 1404SOL    HW214892   4.147   2.326   3.720
 1405SOL     OW14893   0.235   1.977   0.166
 1405SOL    HW114894   0.205   1.907   0.231
 1405SOL    HW214895   0.333   1.994   0.180
 1406SOL     OW14896   7.050   0.974   0.050
 1406SOL    HW114897   7.134   0.926   0.076
 1406SOL    HW214898   7.055   1.000   5.588
 1407SOL     OW14899   1.095   8.499   1.851
 1407SOL    HW114900   1.132   8.538   1.766
 1407SOL    HW214901   1.088   8.570   1.920
 1408SOL     OW14902   5.981   1.435   2.111
 1408SOL    HW114903   5.906   1.392   2.161
 1408SOL    HW214904   6.020   1.509   2.167
 1409SOL     OW14905   6.674   9.277   1.963
 1409SOL    HW114906   6.674   9.189   2.010
 1409SOL    HW214907   6.583   9.295   1.926
 1410SOL     OW14908   8.103   4.180   0.506
 1410SOL    HW114909   8.136   4.214   0.594
 1410SOL    HW214910   8.142   4.090   0.489
 1411SOL     OW14911   8.471   0.548   3.090
 1411SOL    HW114912   8.377   0.560   3.120
 1411SOL    HW214913   8.486   0.453   3.064
 1412SOL     OW14914   8.919   4.771   0.891
 1412SOL    HW114915   8.825   4.807   0.887
 1412SOL    HW214916   8.968   4.815   0.966
 1413SOL     OW14917   9.693   7.510   4.195
 1413SOL    HW114918   9.704   7.410   4.192
 1413SOL    HW214919   9.717   7.549   4.106
 1414SOL     OW14920   3.116   8.887   2.280
 1414SOL    HW114921   3.154   8.976   2.256
 1414SOL    HW214922   3.111   8.830   2.199
 1415SOL     OW14923   9.998   2.656   2.705
 1415SOL    HW114924   0.029   2.642   2.610
 1415SOL    HW214925   9.976   2.568   2.746
 1416SOL     OW14926   8.875   2.767   1.934
 1416SOL    HW114927   8.944   2.696   1.917
 1416SOL    HW214928   8.914   2.837   1.994
 1417SOL     OW14929   8.156   2.249   4.364
 1417SOL    HW114930   8.249   2.265   4.397
 1417SOL    HW214931   8.158   2.184   4.288
 1418SOL     OW14932   1.147   7.708   1.786
 1418SOL    HW114933   1.199   7.785   1.749
 1418SOL    HW214934   1.129   7.642   1.712
 1419SOL     OW14935   2.488   2.197   1.540
 1419SOL    HW114936   2.576   2.207   1.588
 1419SOL    HW214937   2.492   2.245   1.453
 1420SOL     OW14938   3.147   8.209   0.088
 1420SOL    HW114939   3.121   8.290   0.140
 1420SOL    HW214940   3.243   8.216   0.061
 1421SOL     OW14941   2.865   2.836   0.536
 1421SOL    HW114942   2.930   2.813   0.608
 1421SOL    HW214943   2.774   2.847   0.575
 1422SOL     OW14944   3.827   4.196   1.977
 1422SOL    HW114945   3.744   4.192   2.032
 1422SOL    HW214946   3.880   4.112   1.991
 1423SOL     OW14947   0.349   8.903   3.225
 1423SOL    HW114948   0.317   8.817   3.265
 1423SOL    HW214949   0.449   8.908   3.231
 1424SOL     OW14950   4.339   8.685   3.940
 1424SOL    HW114951   4.435   8.679   3.966
 1424SOL    HW214952   4.326   8.760   3.875
 1425SOL     OW14953   3.817   1.853   2.623
 1425SOL    HW114954   3.730   1.867   2.576
 1425SOL    HW214955   3.836   1.755   2.630
 1426SOL     OW14956   8.790   6.376   2.368
 1426SOL    HW114957   8.799   6.473   2.343
 1426SOL    HW214958   8.759   6.369   2.463
 1427SOL     OW14959   9.965   4.347   2.448
 1427SOL    HW114960   0.036   4.296   2.401
 1427SOL    HW214961   9.943   4.301   2.534
 1428SOL     OW14962   9.563   9.194   2.315
 1428SOL    HW114963   9.559   9.123   2.244
 1428SOL    HW214964   9.526   9.279   2.278
 1429SOL     OW14965   9.570   4.663   2.212
 1429SOL    HW114966   9.640   4.601   2.248
 1429SOL    HW214967   9.480   4.620   2.218
 1430SOL     OW14968   3.473   4.847   0.552
 1430SOL    HW114969   3.530   4.872   0.630
 1430SOL    HW214970   3.400   4.785   0.582
 1431SOL     OW14971   3.717   8.211   3.211
 1431SOL    HW114972   3.802   8.231   3.162
 1431SOL    HW214973   3.676   8.128   3.174
 1432SOL     OW14974   2.287   8.530   0.842
 1432SOL    HW114975   2.244   8.493   0.760
 1432SOL    HW214976   2.228   8.513   0.921
 1433SOL     OW14977   3.822   7.573   2.130
 1433SOL    HW114978   3.728   7.601   2.111
 1433SOL    HW214979   3.864   7.640   2.192
 1434SOL     OW14980   2.442   4.981   1.506
 1434SOL    HW114981   2.410   4.986   1.601
 1434SOL    HW214982   2.461   4.886   1.483
 1435SOL     OW14983   4.270   2.345   0.518
 1435SOL    HW114984   4.206   2.270   0.502
 1435SOL    HW214985   4.341   2.342   0.448
 1436SOL     OW14986   4.944   3.282   2.193
 1436SOL    HW114987   4.996   3.342   2.133
 1436SOL    HW214988   4.960   3.307   2.288
 1437SOL     OW14989   0.701   1.674   2.697
 1437SOL    HW114990   0.774   1.673   2.628
 1437SOL    HW214991   0.709   1.758   2.752
 1438SOL     OW14992   3.706   3.535   2.778
 1438SOL    HW114993   3.690   3.486   2.864
 1438SOL    HW214994   3.629   3.521   2.716
 1439SOL     OW14995   1.456   8.763   2.483
 1439SOL    HW114996   1.492   8.854   2.506
 1439SOL    HW214997   1.357   8.768   2.472
 1440SOL     OW14998   3.547   7.085   1.761
 1440SOL    HW114999   3.522   7.067   1.666
 1440SOL    HW215000   3.641   7.054   1.777
 1441SOL     OW15001   6.979   9.836   2.456
 1441SOL    HW115002   7.078   9.822   2.460
 1441SOL    HW215003   6.952   9.906   2.522
 1442SOL     OW15004   8.406   9.822   1.782
 1442SOL    HW115005   8.379   9.736   1.825
 1442SOL    HW215006   8.502   9.839   1.800
 1443SOL     OW15007   7.779   9.964   0.896
 1443SOL    HW115008   7.699   9.956   0.837
 1443SOL    HW215009   7.765   9.907   0.977
 1444SOL     OW15010   5.777   1.780   2.551
 1444SOL    HW115011   5.866   1.825   2.549
 1444SOL    HW215012   5.790   1.681   2.540
 1445SOL     OW15013   9.619   5.268   3.491
 1445SOL    HW115014   9.549   5.204   3.521
 1445SOL    HW215015   9.598   5.360   3.525
 1446SOL     OW15016   6.165   1.136   3.801
 1446SOL    HW115017   6.221   1.175   3.728
 1446SOL    HW215018   6.115   1.210   3.847
 1447SOL     OW15019   3.877   0.494   2.763
 1447SOL    HW115020   3.863   0.537   2.852
 1447SOL    HW215021   3.843   0.553   2.690
 1448SOL     OW15022   8.130   5.740   1.759
 1448SOL    HW115023   8.212   5.688   1.783
 1448SOL    HW215024   8.084   5.769   1.843
 1449SOL     OW15025   0.949   3.214   1.939
 1449SOL    HW115026   0.988   3.223   1.848
 1449SOL    HW215027   0.989   3.134   1.985
 1450SOL     OW15028   3.382   3.603   2.946
 1450SOL    HW115029   3.411   3.556   3.029
 1450SOL    HW215030   3.396   3.702   2.958
 1451SOL     OW15031   0.156   8.909   1.121
 1451SOL    HW115032   0.237   8.881   1.171
 1451SOL    HW215033   0.084   8.935   1.186
 1452SOL     OW15034   9.755   8.749   3.032
 1452SOL    HW115035   9.731   8.830   3.086
 1452SOL    HW215036   9.682   8.681   3.040
 1453SOL     OW15037   1.082   8.284   3.079
 1453SOL    HW115038   1.055   8.209   3.019
 1453SOL    HW215039   1.021   8.288   3.158
 1454SOL     OW15040   3.617   0.513   0.945
 1454SOL    HW115041   3.583   0.498   0.852
 1454SOL    HW215042   3.634   0.425   0.989
 1455SOL     OW15043   8.766   4.491   2.792
 1455SOL    HW115044   8.839   4.434   2.831
 1455SOL    HW215045   8.685   4.434   2.777
 1456SOL     OW15046   8.378   5.615   1.812
 1456SOL    HW115047   8.434   5.532   1.821
 1456SOL    HW215048   8.423   5.678   1.748
 1457SOL     OW15049   9.611   6.869   2.176
 1457SOL    HW115050   9.551   6.789   2.172
 1457SOL    HW215051   9.687   6.856   2.113
 1458SOL     OW15052   4.290   1.581   0.274
 1458SOL    HW115053   4.329   1.584   0.365
 1458SOL    HW215054   4.212   1.645   0.269
 1459SOL     OW15055   0.978   2.205   0.274
 1459SOL    HW115056   0.928   2.132   0.320
 1459SOL    HW215057   0.917   2.283   0.260
 1460SOL     OW15058   4.694   4.710   1.745
 1460SOL    HW115059   4.715   4.771   1.822
 1460SOL    HW215060   4.598   4.682   1.750
 1461SOL     OW15061   8.191   9.759   1.278
 1461SOL    HW115062   8.216   9.792   1.369
 1461SOL    HW215063   8.222   9.665   1.267
 1462SOL     OW15064   1.671   3.790   3.670
 1462SOL    HW115065   1.654   3.719   3.738
 1462SOL    HW215066   1.631   3.764   3.583
 1463SOL     OW15067   4.023   2.424   2.218
 1463SOL    HW115068   4.004   2.416   2.120
 1463SOL    HW215069   3.976   2.350   2.267
 1464SOL     OW15070   8.438   5.080   0.069
 1464SOL    HW115071   8.344   5.050   0.085
 1464SOL    HW215072   8.501   5.007   0.095
 1465SOL     OW15073   9.698   8.959   2.036
 1465SOL    HW115074   9.682   9.002   1.947
 1465SOL    HW215075   9.774   9.006   2.081
 1466SOL     OW15076   7.775   9.083   3.348
 1466SOL    HW115077   7.788   9.174   3.388
 1466SOL    HW215078   7.682   9.076   3.310
 1467SOL     OW15079   7.331   9.842   1.894
 1467SOL    HW115080   7.359   9.791   1.813
 1467SOL    HW215081   7.236   9.872   1.883
 1468SOL     OW15082   7.591   8.318   2.877
 1468SOL    HW115083   7.609   8.411   2.846
 1468SOL    HW215084   7.653   8.254   2.830
 1469SOL     OW15085   0.800   0.619   4.124
 1469SOL    HW115086   0.745   0.690   4.169
 1469SOL    HW215087   0.850   0.659   4.047
 1470SOL     OW15088   8.358   6.323   3.679
 1470SOL    HW115089   8.288   6.316   3.608
 1470SOL    HW215090   8.351   6.413   3.723
 1471SOL     OW15091   7.840   1.414   3.733
 1471SOL    HW115092   7.785   1.379   3.809
 1471SOL    HW215093   7.789   1.405   3.648
 1472SOL     OW15094   8.828   8.818   1.480
 1472SOL    HW115095   8.911   8.871   1.462
 1472SOL    HW215096   8.803   8.768   1.397
 1473SOL     OW15097   2.452   2.590   1.447
 1473SOL    HW115098   2.538   2.566   1.494
 1473SOL    HW215099   2.470   2.663   1.381
 1474SOL     OW15100   0.626   4.604   1.693
 1474SOL    HW115101   0.564   4.568   1.762
 1474SOL    HW215102   0.708   4.547   1.688
 1475SOL     OW15103   2.669   3.304   1.323
 1475SOL    HW115104   2.669   3.245   1.404
 1475SOL    HW215105   2.576   3.307   1.285
 1476SOL     OW15106   3.086   9.936   2.047
 1476SOL    HW115107   3.131   9.846   2.045
 1476SOL    HW215108   3.130   9.993   2.117
 1477SOL     OW15109   1.188   0.330   3.322
 1477SOL    HW115110   1.173   0.361   3.416
 1477SOL    HW215111   1.264   0.265   3.320
 1478SOL     OW15112   9.106   7.200   1.584
 1478SOL    HW115113   9.033   7.182   1.518
 1478SOL    HW215114   9.155   7.284   1.558
 1479SOL     OW15115   0.080   7.081   1.194
 1479SOL    HW115116   0.145   7.022   1.146
 1479SOL    HW215117   0.129   7.137   1.262
 1480SOL     OW15118   9.960   5.099   4.242
 1480SOL    HW115119   0.001   5.023   4.293
 1480SOL    HW215120   0.028   5.140   4.182
 1481SOL     OW15121   3.930   0.903   2.727
 1481SOL    HW115122   3.925   0.820   2.671
 1481SOL    HW215123   4.023   0.938   2.726
 1482SOL     OW15124   8.960   2.500   1.325
 1482SOL    HW115125   8.973   2.539   1.233
 1482SOL    HW215126   9.048   2.496   1.372
 1483SOL     OW15127   1.549   6.150   2.458
 1483SOL    HW115128   1.553   6.228   2.396
 1483SOL    HW215129   1.600   6.170   2.541
 1484SOL     OW15130   0.772   7.471   0.558
 1484SOL    HW115131   0.770   7.371   0.553
 1484SOL    HW215132   0.734   7.510   0.474
 1485SOL     OW15133   4.634   7.732   4.162
 1485SOL    HW115134   4.577   7.813   4.154
 1485SOL    HW215135   4.611   7.667   4.089
 1486SOL     OW15136   3.149   0.487   2.144
 1486SOL    HW115137   3.237   0.451   2.115
 1486SOL    HW215138   3.151   0.587   2.143
 1487SOL     OW15139   3.438   8.533   0.360
 1487SOL    HW115140   3.462   8.628   0.382
 1487SOL    HW215141   3.491   8.471   0.418
 1488SOL     OW15142   3.832   1.969   1.014
 1488SOL    HW115143   3.926   1.962   1.046
 1488SOL    HW215144   3.792   2.055   1.046
 1489SOL     OW15145   9.911   4.945   2.845
 1489SOL    HW115146   9.839   4.911   2.784
 1489SOL    HW215147   9.994   4.963   2.791
 1490SOL     OW15148   7.310   8.037   2.550
 1490SOL    HW115149   7.293   8.051   2.648
 1490SOL    HW215150   7.224   8.050   2.500
 1491SOL     OW15151   5.964   0.997   1.133
 1491SOL    HW115152   6.015   1.028   1.053
 1491SOL    HW215153   5.869   0.977   1.107
 1492SOL     OW15154   6.967   8.916   1.589
 1492SOL    HW115155   6.938   9.005   1.555
 1492SOL    HW215156   6.900   8.846   1.561
 1493SOL     OW15157   8.030   9.878   0.832
 1493SOL    HW115158   8.079   9.946   0.777
 1493SOL    HW215159   7.939   9.912   0.855
 1494SOL     OW15160   3.605   4.149   0.882
 1494SOL    HW115161   3.539   4.139   0.957
 1494SOL    HW215162   3.563   4.118   0.797
 1495SOL     OW15163   3.116   5.303   0.849
 1495SOL    HW115164   3.054   5.373   0.885
 1495SOL    HW215165   3.088   5.279   0.756
 1496SOL     OW15166   0.153   4.974   2.703
 1496SOL    HW115167   0.145   5.059   2.651
 1496SOL    HW215168   0.105   4.901   2.654
 1497SOL     OW15169   1.840   7.503   2.026
 1497SOL    HW115170   1.760   7.518   1.968
 1497SOL    HW215171   1.900   7.582   2.020
 1498SOL     OW15172   4.934   0.794   2.113
 1498SOL    HW115173   4.866   0.731   2.151
 1498SOL    HW215174   4.999   0.819   2.185
 1499SOL     OW15175   8.564   6.142   0.849
 1499SOL    HW115176   8.584   6.239   0.846
 1499SOL    HW215177   8.634   6.094   0.901
 1500SOL     OW15178   2.901   1.086   2.344
 1500SOL    HW115179   2.888   1.101   2.442
 1500SOL    HW215180   2.825   1.126   2.294
 1501SOL     OW15181   0.877   5.133   3.126
 1501SOL    HW115182   0.806   5.106   3.060
 1501SOL    HW215183   0.946   5.189   3.080
 1502SOL     OW15184   3.315   7.341   0.545
 1502SOL    HW115185   3.285   7.337   0.450
 1502SOL    HW215186   3.328   7.436   0.572
 1503SOL     OW15187   3.226   7.770   3.586
 1503SOL    HW115188   3.301   7.821   3.629
 1503SOL    HW215189   3.138   7.805   3.619
 1504SOL     OW15190   2.404   2.074   3.007
 1504SOL    HW115191   2.402   2.001   3.075
 1504SOL    HW215192   2.378   2.037   2.918
 1505SOL     OW15193   3.524   3.375   1.203
 1505SOL    HW115194   3.477   3.434   1.138
 1505SOL    HW215195   3.559   3.294   1.155
 1506SOL     OW15196   2.077   8.151   2.363
 1506SOL    HW115197   2.054   8.054   2.366
 1506SOL    HW215198   1.997   8.205   2.391
 1507SOL     OW15199   4.662   4.761   0.953
 1507SOL    HW115200   4.758   4.735   0.942
 1507SOL    HW215201   4.641   4.773   1.051
 1508SOL     OW15202   8.793   9.760   1.589
 1508SOL    HW115203   8.867   9.756   1.522
 1508SOL    HW215204   8.765   9.855   1.602
 1509SOL     OW15205   4.820   3.549   1.874
 1509SOL    HW115206   4.862   3.578   1.788
 1509SOL    HW215207   4.852   3.607   1.949
 1510SOL     OW15208   0.222   0.588   0.027
 1510SOL    HW115209   0.126   0.568   0.047
 1510SOL    HW215210   0.235   0.589   5.562
 1511SOL     OW15211   9.773   7.706   2.545
 1511SOL    HW115212   9.777   7.628   2.608
 1511SOL    HW215213   9.684   7.706   2.499
 1512SOL     OW15214   7.639   0.591   0.719
 1512SOL    HW115215   7.601   0.554   0.804
 1512SOL    HW215216   7.703   0.525   0.680
 1513SOL     OW15217   4.048   8.727   3.904
 1513SOL    HW115218   4.145   8.706   3.919
 1513SOL    HW215219   4.015   8.787   3.977
 1514SOL     OW15220   7.572   1.444   1.207
 1514SOL    HW115221   7.612   1.402   1.125
 1514SOL    HW215222   7.475   1.461   1.192
 1515SOL     OW15223   3.240   0.569   3.443
 1515SOL    HW115224   3.258   0.590   3.347
 1515SOL    HW215225   3.293   0.489   3.471
 1516SOL     OW15226   7.445   6.687   3.825
 1516SOL    HW115227   7.446   6.689   3.925
 1516SOL    HW215228   7.443   6.780   3.790
 1517SOL     OW15229   9.825   5.369   3.113
 1517SOL    HW115230   9.814   5.304   3.188
 1517SOL    HW215231   9.742   5.425   3.106
 1518SOL     OW15232   1.167   4.744   3.300
 1518SOL    HW115233   1.183   4.700   3.212
 1518SOL    HW215234   1.084   4.799   3.295
 1519SOL     OW15235   8.610   6.388   4.037
 1519SOL    HW115236   8.550   6.466   4.056
 1519SOL    HW215237   8.693   6.420   3.991
 1520SOL     OW15238   9.474   5.148   0.562
 1520SOL    HW115239   9.381   5.180   0.583
 1520SOL    HW215240   9.527   5.224   0.524
 1521SOL     OW15241   9.490   0.555   3.702
 1521SOL    HW115242   9.521   0.461   3.686
 1521SOL    HW215243   9.552   0.600   3.766
 1522SOL     OW15244   1.420   6.901   3.913
 1522SOL    HW115245   1.459   6.915   4.004
 1522SOL    HW215246   1.334   6.850   3.921
 1523SOL     OW15247   4.424   3.574   0.273
 1523SOL    HW115248   4.327   3.595   0.285
 1523SOL    HW215249   4.475   3.600   0.356
 1524SOL     OW15250   8.953   6.786   1.215
 1524SOL    HW115251   9.025   6.833   1.165
 1524SOL    HW215252   8.881   6.758   1.151
 1525SOL     OW15253   8.822   9.244   1.611
 1525SOL    HW115254   8.775   9.162   1.581
 1525SOL    HW215255   8.786   9.272   1.701
 1526SOL     OW15256   0.687   9.014   0.549
 1526SOL    HW115257   0.762   9.006   0.615
 1526SOL    HW215258   0.702   9.095   0.492
 1527SOL     OW15259   4.354   9.527   2.484
 1527SOL    HW115260   4.267   9.562   2.449
 1527SOL    HW215261   4.424   9.534   2.414
 1528SOL     OW15262   9.575   9.876   3.155
 1528SOL    HW115263   9.580   9.975   3.140
 1528SOL    HW215264   9.480   9.850   3.174
 1529SOL     OW15265   3.890   8.624   2.145
 1529SOL    HW115266   3.881   8.655   2.050
 1529SOL    HW215267   3.899   8.524   2.147
 1530SOL     OW15268   0.872   6.373   4.375
 1530SOL    HW115269   0.791   6.320   4.350
 1530SOL    HW215270   0.845   6.462   4.411
 1531SOL     OW15271   9.562   5.809   0.415
 1531SOL    HW115272   9.509   5.783   0.496
 1531SOL    HW215273   9.524   5.892   0.375
 1532SOL     OW15274   2.602   6.653   3.874
 1532SOL    HW115275   2.516   6.651   3.925
 1532SOL    HW215276   2.640   6.560   3.871
 1533SOL     OW15277   9.574   8.862   1.656
 1533SOL    HW115278   9.651   8.806   1.687
 1533SOL    HW215279   9.490   8.831   1.701
 1534SOL     OW15280   5.105   8.924   4.382
 1534SOL    HW115281   5.161   8.954   4.305
 1534SOL    HW215282   5.034   8.991   4.400
 1535SOL     OW15283   0.265   8.960   4.362
 1535SOL    HW115284   0.179   8.925   4.325
 1535SOL    HW215285   0.339   8.939   4.299
 1536SOL     OW15286   5.363   8.849   1.258
 1536SOL    HW115287   5.364   8.766   1.313
 1536SOL    HW215288   5.441   8.848   1.195
 1537SOL     OW15289   5.338   0.982   3.083
 1537SOL    HW115290   5.353   1.081   3.089
 1537SOL    HW215291   5.335   0.955   2.987
 1538SOL     OW15292   9.659   0.060   1.374
 1538SOL    HW115293   9.687   0.132   1.311
 1538SOL    HW215294   9.735   9.995   1.387
 1539SOL     OW15295   2.717   4.703   0.659
 1539SOL    HW115296   2.637   4.662   0.702
 1539SOL    HW215297   2.706   4.702   0.560
 1540SOL     OW15298   9.836   7.564   1.330
 1540SOL    HW115299   9.818   7.638   1.265
 1540SOL    HW215300   9.869   7.484   1.280
 1541SOL     OW15301   8.445   5.656   4.331
 1541SOL    HW115302   8.453   5.666   4.430
 1541SOL    HW215303   8.439   5.747   4.289
 1542SOL     OW15304   8.582   8.192   0.094
 1542SOL    HW115305   8.537   8.198   0.005
 1542SOL    HW215306   8.552   8.269   0.151
 1543SOL     OW15307   0.728   0.203   2.411
 1543SOL    HW115308   0.818   0.201   2.368
 1543SOL    HW215309   0.676   0.280   2.375
 1544SOL     OW15310   0.125   0.201   1.253
 1544SOL    HW115311   0.077   0.123   1.213
 1544SOL    HW215312   0.134   0.187   1.352
 1545SOL     OW15313   3.865   2.001   0.418
 1545SOL    HW115314   3.803   2.041   0.485
 1545SOL    HW215315   3.841   2.034   0.327
 1546SOL     OW15316   2.894   8.853   0.607
 1546SOL    HW115317   2.916   8.949   0.623
 1546SOL    HW215318   2.843   8.845   0.521
 1547SOL     OW15319   9.112   2.450   2.565
 1547SOL    HW115320   9.161   2.455   2.478
 1547SOL    HW215321   9.088   2.542   2.596
 1548SOL     OW15322   9.949   9.783   4.309
 1548SOL    HW115323   9.914   9.876   4.316
 1548SOL    HW215324   9.887   9.721   4.357
 1549SOL     OW15325   1.639   7.734   2.274
 1549SOL    HW115326   1.638   7.638   2.299
 1549SOL    HW215327   1.675   7.788   2.350
 1550SOL     OW15328   4.201   8.776   3.519
 1550SOL    HW115329   4.170   8.867   3.493
 1550SOL    HW215330   4.133   8.708   3.490
 1551SOL     OW15331   7.621   2.735   2.527
 1551SOL    HW115332   7.654   2.829   2.530
 1551SOL    HW215333   7.581   2.716   2.437
 1552SOL     OW15334   6.428   7.848   2.152
 1552SOL    HW115335   6.440   7.936   2.105
 1552SOL    HW215336   6.438   7.861   2.250
 1553SOL     OW15337   0.181   8.644   4.170
 1553SOL    HW115338   0.126   8.727   4.181
 1553SOL    HW215339   0.264   8.665   4.118
 1554SOL     OW15340   8.248   6.477   4.232
 1554SOL    HW115341   8.261   6.394   4.285
 1554SOL    HW215342   8.216   6.550   4.293
 1555SOL     OW15343   2.834   0.270   2.744
 1555SOL    HW115344   2.916   0.313   2.782
 1555SOL    HW215345   2.856   0.177   2.716
 1556SOL     OW15346   8.364   6.575   3.806
 1556SOL    HW115347   8.397   6.585   3.900
 1556SOL    HW215348   8.264   6.568   3.806
 1557SOL     OW15349   0.802   2.813   0.043
 1557SOL    HW115350   0.818   2.845   5.583
 1557SOL    HW215351   0.716   2.850   0.076
 1558SOL     OW15352   3.326   5.155   3.374
 1558SOL    HW115353   3.234   5.189   3.356
 1558SOL    HW215354   3.335   5.133   3.471
 1559SOL     OW15355   1.379   2.522   2.068
 1559SOL    HW115356   1.343   2.516   2.162
 1559SOL    HW215357   1.368   2.433   2.023
 1560SOL     OW15358   0.472   8.162   2.713
 1560SOL    HW115359   0.393   8.101   2.710
 1560SOL    HW215360   0.456   8.234   2.781
 1561SOL     OW15361   2.324   8.955   2.382
 1561SOL    HW115362   2.270   8.957   2.466
 1561SOL    HW215363   2.265   8.929   2.305
 1562SOL     OW15364   4.106   1.465   2.698
 1562SOL    HW115365   4.099   1.382   2.643
 1562SOL    HW215366   4.165   1.531   2.651
 1563SOL     OW15367   4.009   1.595   3.552
 1563SOL    HW115368   4.026   1.566   3.646
 1563SOL    HW215369   3.983   1.692   3.551
 1564SOL     OW15370   9.522   8.541   2.618
 1564SOL    HW115371   9.548   8.479   2.693
 1564SOL    HW215372   9.563   8.507   2.533
 1565SOL     OW15373   4.792   1.613   4.036
 1565SOL    HW115374   4.753   1.539   4.091
 1565SOL    HW215375   4.749   1.700   4.062
 1566SOL     OW15376   2.294   7.931   2.259
 1566SOL    HW115377   2.246   7.843   2.260
 1566SOL    HW215378   2.302   7.966   2.352
 1567SOL     OW15379   8.940   6.129   0.808
 1567SOL    HW115380   8.872   6.096   0.874
 1567SOL    HW215381   8.990   6.051   0.770
 1568SOL     OW15382   5.163   3.530   2.354
 1568SOL    HW115383   5.257   3.497   2.350
 1568SOL    HW215384   5.106   3.462   2.400
 1569SOL     OW15385   4.099   1.115   2.316
 1569SOL    HW115386   4.096   1.022   2.353
 1569SOL    HW215387   4.194   1.140   2.298
 1570SOL     OW15388   3.034   4.333   4.211
 1570SOL    HW115389   3.053   4.396   4.136
 1570SOL    HW215390   3.099   4.350   4.285
 1571SOL     OW15391   0.084   2.448   3.991
 1571SOL    HW115392   0.113   2.358   4.024
 1571SOL    HW215393   0.070   2.509   4.069
 1572SOL     OW15394   8.588   8.627   2.448
 1572SOL    HW115395   8.528   8.708   2.444
 1572SOL    HW215396   8.539   8.548   2.412
 1573SOL     OW15397   8.232   8.530   1.581
 1573SOL    HW115398   8.216   8.605   1.645
 1573SOL    HW215399   8.316   8.482   1.606
 1574SOL     OW15400   6.488   8.702   1.557
 1574SOL    HW115401   6.437   8.741   1.480
 1574SOL    HW215402   6.424   8.654   1.618
 1575SOL     OW15403   0.714   0.912   1.316
 1575SOL    HW115404   0.811   0.934   1.324
 1575SOL    HW215405   0.702   0.813   1.312
 1576SOL     OW15406   0.937   7.192   0.297
 1576SOL    HW115407   0.860   7.147   0.251
 1576SOL    HW215408   0.984   7.252   0.233
 1577SOL     OW15409   3.803   8.999   3.525
 1577SOL    HW115410   3.844   8.926   3.580
 1577SOL    HW215411   3.761   8.961   3.444
 1578SOL     OW15412   6.039   9.564   2.290
 1578SOL    HW115413   5.960   9.600   2.339
 1578SOL    HW215414   6.020   9.471   2.257
 1579SOL     OW15415   9.285   2.337   1.658
 1579SOL    HW115416   9.359   2.386   1.704
 1579SOL    HW215417   9.307   2.240   1.652
 1580SOL     OW15418   7.583   6.681   2.405
 1580SOL    HW115419   7.546   6.665   2.313
 1580SOL    HW215420   7.678   6.710   2.398
 1581SOL     OW15421   6.736   8.995   3.852
 1581SOL    HW115422   6.808   9.064   3.853
 1581SOL    HW215423   6.711   8.970   3.946
 1582SOL     OW15424   0.940   2.034   3.381
 1582SOL    HW115425   0.877   1.959   3.400
 1582SOL    HW215426   0.953   2.089   3.464
 1583SOL     OW15427   7.522   8.774   2.922
 1583SOL    HW115428   7.424   8.785   2.907
 1583SOL    HW215429   7.541   8.774   3.020
 1584SOL     OW15430   3.878   1.044   2.129
 1584SOL    HW115431   3.906   1.057   2.034
 1584SOL    HW215432   3.952   1.072   2.191
 1585SOL     OW15433   7.834   0.234   0.863
 1585SOL    HW115434   7.811   0.138   0.875
 1585SOL    HW215435   7.861   0.273   0.951
 1586SOL     OW15436   2.019   3.251   3.253
 1586SOL    HW115437   2.077   3.301   3.316
 1586SOL    HW215438   2.077   3.198   3.190
 1587SOL     OW15439   0.684   3.129   1.921
 1587SOL    HW115440   0.689   3.034   1.889
 1587SOL    HW215441   0.777   3.162   1.941
 1588SOL     OW15442   9.603   4.397   3.980
 1588SOL    HW115443   9.634   4.476   4.034
 1588SOL    HW215444   9.656   4.391   3.896
 1589SOL     OW15445   8.417   2.994   1.632
 1589SOL    HW115446   8.416   3.094   1.641
 1589SOL    HW215447   8.494   2.967   1.574
 1590SOL     OW15448   0.146   0.715   2.020
 1590SOL    HW115449   0.154   0.712   2.120
 1590SOL    HW215450   0.206   0.785   1.983
 1591SOL     OW15451   2.375   8.293   1.388
 1591SOL    HW115452   2.449   8.241   1.347
 1591SOL    HW215453   2.399   8.390   1.389
 1592SOL     OW15454   7.369   2.002   0.578
 1592SOL    HW115455   7.369   2.052   0.491
 1592SOL    HW215456   7.422   2.054   0.645
 1593SOL     OW15457   3.827   9.067   1.061
 1593SOL    HW115458   3.757   9.107   1.001
 1593SOL    HW215459   3.790   8.986   1.107
 1594SOL     OW15460   0.772   1.392   0.826
 1594SOL    HW115461   0.718   1.309   0.838
 1594SOL    HW215462   0.817   1.391   0.736
 1595SOL     OW15463   1.923   8.201   1.233
 1595SOL    HW115464   1.887   8.110   1.213
 1595SOL    HW215465   1.943   8.248   1.146
 1596SOL     OW15466   4.485   9.300   0.207
 1596SOL    HW115467   4.436   9.255   0.282
 1596SOL    HW215468   4.580   9.266   0.205
 1597SOL     OW15469   0.609   9.195   0.123
 1597SOL    HW115470   0.517   9.188   0.162
 1597SOL    HW215471   0.618   9.130   0.048
 1598SOL     OW15472   9.010   3.121   1.435
 1598SOL    HW115473   9.102   3.160   1.438
 1598SOL    HW215474   9.009   3.035   1.485
 1599SOL     OW15475   7.069   1.098   4.014
 1599SOL    HW115476   6.999   1.169   4.011
 1599SOL    HW215477   7.031   1.012   3.982
 1600SOL     OW15478   3.690   9.747   2.220
 1600SOL    HW115479   3.767   9.809   2.232
 1600SOL    HW215480   3.713   9.656   2.256
 1601SOL     OW15481   8.440   4.465   1.412
 1601SOL    HW115482   8.386   4.539   1.452
 1601SOL    HW215483   8.409   4.448   1.318
 1602SOL     OW15484   5.271   0.420   3.884
 1602SOL    HW115485   5.331   0.500   3.881
 1602SOL    HW215486   5.249   0.399   3.979
 1603SOL     OW15487   1.336   6.937   0.518
 1603SOL    HW115488   1.249   6.980   0.495
 1603SOL    HW215489   1.327   6.837   0.511
 1604SOL     OW15490   7.413   5.953   4.052
 1604SOL    HW115491   7.393   6.003   3.968
 1604SOL    HW215492   7.340   5.887   4.069
 1605SOL     OW15493   0.744   6.669   3.065
 1605SOL    HW115494   0.793   6.606   3.124
 1605SOL    HW215495   0.660   6.626   3.031
 1606SOL     OW15496   9.748   3.573   0.287
 1606SOL    HW115497   9.709   3.664   0.299
 1606SOL    HW215498   9.810   3.573   0.209
 1607SOL     OW15499   4.914   9.799   4.252
 1607SOL    HW115500   5.006   9.758   4.254
 1607SOL    HW215501   4.921   9.896   4.230
 1608SOL     OW15502   1.475   4.875   0.904
 1608SOL    HW115503   1.550   4.817   0.936
 1608SOL    HW215504   1.483   4.966   0.945
 1609SOL     OW15505   8.706   1.511   2.821
 1609SOL    HW115506   8.665   1.575   2.886
 1609SOL    HW215507   8.805   1.513   2.830
 1610SOL     OW15508   1.671   7.427   3.299
 1610SOL    HW115509   1.595   7.413   3.234
 1610SOL    HW215510   1.745   7.476   3.253
 1611SOL     OW15511   8.343   0.198   0.199
 1611SOL    HW115512   8.289   0.129   0.247
 1611SOL    HW215513   8.282   0.264   0.156
 1612SOL     OW15514   2.923   3.695   2.966
 1612SOL    HW115515   2.850   3.671   3.030
 1612SOL    HW215516   2.924   3.629   2.891
 1613SOL     OW15517   6.647   1.489   2.961
 1613SOL    HW115518   6.562   1.455   2.920
 1613SOL    HW215519   6.660   1.444   3.050
 1614SOL     OW15520   9.790   5.673   2.445
 1614SOL    HW115521   9.848   5.752   2.466
 1614SOL    HW215522   9.739   5.647   2.527
 1615SOL     OW15523   3.167   4.733   2.254
 1615SOL    HW115524   3.134   4.664   2.319
 1615SOL    HW215525   3.145   4.824   2.289
 1616SOL     OW15526   8.569   5.375   0.602
 1616SOL    HW115527   8.542   5.430   0.681
 1616SOL    HW215528   8.533   5.418   0.518
 1617SOL     OW15529   3.589   9.859   1.803
 1617SOL    HW115530   3.661   9.927   1.790
 1617SOL    HW215531   3.515   9.874   1.737
 1618SOL     OW15532   2.925   8.155   3.666
 1618SOL    HW115533   2.915   8.141   3.567
 1618SOL    HW215534   2.845   8.204   3.701
 1619SOL     OW15535   1.408   5.154   1.361
 1619SOL    HW115536   1.352   5.186   1.437
 1619SOL    HW215537   1.442   5.062   1.380
 1620SOL     OW15538   1.136   2.055   0.692
 1620SOL    HW115539   1.216   2.071   0.750
 1620SOL    HW215540   1.140   2.115   0.612
 1621SOL     OW15541   8.626   7.108   3.430
 1621SOL    HW115542   8.533   7.090   3.399
 1621SOL    HW215543   8.626   7.125   3.528
 1622SOL     OW15544   1.311   3.417   2.185
 1622SOL    HW115545   1.245   3.410   2.110
 1622SOL    HW215546   1.267   3.459   2.264
 1623SOL     OW15547   6.334   8.792   1.349
 1623SOL    HW115548   6.272   8.860   1.389
 1623SOL    HW215549   6.280   8.715   1.315
 1624SOL     OW15550   8.981   8.468   3.606
 1624SOL    HW115551   9.019   8.523   3.531
 1624SOL    HW215552   8.952   8.379   3.571
 1625SOL     OW15553   3.530   1.213   2.652
 1625SOL    HW115554   3.499   1.215   2.557
 1625SOL    HW215555   3.628   1.192   2.654
 1626SOL     OW15556   6.514   6.865   3.323
 1626SOL    HW115557   6.464   6.876   3.237
 1626SOL    HW215558   6.610   6.890   3.310
 1627SOL     OW15559   5.097   3.879   1.437
 1627SOL    HW115560   5.130   3.966   1.472
 1627SOL    HW215561   5.063   3.891   1.344
 1628SOL     OW15562   7.248   7.793   3.241
 1628SOL    HW115563   7.171   7.852   3.216
 1628SOL    HW215564   7.330   7.822   3.190
 1629SOL     OW15565   5.034   0.498   4.222
 1629SOL    HW115566   5.112   0.441   4.196
 1629SOL    HW215567   4.996   0.542   4.141
 1630SOL     OW15568   0.499   4.367   3.466
 1630SOL    HW115569   0.458   4.275   3.463
 1630SOL    HW215570   0.507   4.402   3.373
 1631SOL     OW15571   0.640   7.950   0.887
 1631SOL    HW115572   0.555   7.899   0.900
 1631SOL    HW215573   0.690   7.954   0.973
 1632SOL     OW15574   0.037   4.816   0.728
 1632SOL    HW115575   9.986   4.735   0.757
 1632SOL    HW215576   0.131   4.790   0.706
 1633SOL     OW15577   0.428   5.213   4.142
 1633SOL    HW115578   0.496   5.171   4.082
 1633SOL    HW215579   0.439   5.313   4.138
 1634SOL     OW15580   1.622   5.888   1.082
 1634SOL    HW115581   1.602   5.810   1.022
 1634SOL    HW215582   1.665   5.960   1.029
 1635SOL     OW15583   0.939   3.598   2.207
 1635SOL    HW115584   0.950   3.697   2.201
 1635SOL    HW215585   0.859   3.570   2.155
 1636SOL     OW15586   2.456   1.634   1.187
 1636SOL    HW115587   2.462   1.560   1.254
 1636SOL    HW215588   2.462   1.596   1.095
 1637SOL     OW15589   4.966   8.383   1.331
 1637SOL    HW115590   4.868   8.399   1.332
 1637SOL    HW215591   4.984   8.285   1.325
 1638SOL     OW15592   8.004   3.196   3.507
 1638SOL    HW115593   8.006   3.097   3.518
 1638SOL    HW215594   8.012   3.219   3.410
 1639SOL     OW15595   8.054   3.136   2.184
 1639SOL    HW115596   8.091   3.229   2.180
 1639SOL    HW215597   8.099   3.079   2.116
 1640SOL     OW15598   1.440   7.539   1.382
 1640SOL    HW115599   1.527   7.510   1.343
 1640SOL    HW215600   1.410   7.472   1.450
 1641SOL     OW15601   9.550   1.250   1.937
 1641SOL    HW115602   9.459   1.270   1.900
 1641SOL    HW215603   9.609   1.331   1.928
 1642SOL     OW15604   8.985   0.165   2.699
 1642SOL    HW115605   9.034   0.101   2.758
 1642SOL    HW215606   8.939   0.114   2.626
 1643SOL     OW15607   8.001   9.627   0.009
 1643SOL    HW115608   8.064   9.686   0.058
 1643SOL    HW215609   8.026   9.531   0.025
 1644SOL     OW15610   2.621   0.221   3.824
 1644SOL    HW115611   2.714   0.185   3.809
 1644SOL    HW215612   2.554   0.149   3.805
 1645SOL     OW15613   0.084   0.222   3.257
 1645SOL    HW115614   0.123   0.248   3.169
 1645SOL    HW215615   0.023   0.294   3.289
 1646SOL     OW15616   1.190   6.291   3.404
 1646SOL    HW115617   1.156   6.379   3.371
 1646SOL    HW215618   1.113   6.230   3.421
 1647SOL     OW15619   0.438   6.570   1.900
 1647SOL    HW115620   0.340   6.583   1.882
 1647SOL    HW215621   0.449   6.511   1.981
 1648SOL     OW15622   1.954   4.581   2.847
 1648SOL    HW115623   1.881   4.585   2.916
 1648SOL    HW215624   1.951   4.492   2.801
 1649SOL     OW15625   0.465   7.718   2.859
 1649SOL    HW115626   0.369   7.728   2.884
 1649SOL    HW215627   0.473   7.658   2.779
 1650SOL     OW15628   7.650   1.724   0.010
 1650SOL    HW115629   7.745   1.723   0.040
 1650SOL    HW215630   7.637   1.655   5.572
 1651SOL     OW15631   9.085   9.739   0.631
 1651SOL    HW115632   9.168   9.785   0.664
 1651SOL    HW215633   9.109   9.648   0.596
 1652SOL     OW15634   3.410   2.925   0.618
 1652SOL    HW115635   3.459   2.929   0.705
 1652SOL    HW215636   3.324   2.976   0.626
 1653SOL     OW15637   2.000   0.805   0.503
 1653SOL    HW115638   1.925   0.839   0.560
 1653SOL    HW215639   2.072   0.874   0.499
 1654SOL     OW15640   9.802   4.357   2.056
 1654SOL    HW115641   9.797   4.409   1.970
 1654SOL    HW215642   9.746   4.275   2.049
 1655SOL     OW15643   4.096   0.322   1.795
 1655SOL    HW115644   4.134   0.325   1.702
 1655SOL    HW215645   3.997   0.333   1.791
 1656SOL     OW15646   8.281   5.492   2.404
 1656SOL    HW115647   8.275   5.521   2.308
 1656SOL    HW215648   8.326   5.403   2.408
 1657SOL     OW15649   9.517   2.992   3.786
 1657SOL    HW115650   9.507   3.039   3.874
 1657SOL    HW215651   9.461   3.038   3.717
 1658SOL     OW15652   1.618   1.772   3.382
 1658SOL    HW115653   1.556   1.695   3.392
 1658SOL    HW215654   1.573   1.845   3.331
 1659SOL     OW15655   3.103   2.397   0.189
 1659SOL    HW115656   3.102   2.480   0.244
 1659SOL    HW215657   3.197   2.364   0.181
 1660SOL     OW15658   1.706   8.704   2.186
 1660SOL    HW115659   1.612   8.674   2.175
 1660SOL    HW215660   1.730   8.767   2.112
 1661SOL     OW15661   1.630   2.926   3.076
 1661SOL    HW115662   1.641   2.896   3.170
 1661SOL    HW215663   1.537   2.960   3.062
 1662SOL     OW15664   0.657   4.816   2.721
 1662SOL    HW115665   0.688   4.909   2.704
 1662SOL    HW215666   0.558   4.814   2.728
 1663SOL     OW15667   5.304   0.497   0.369
 1663SOL    HW115668   5.250   0.580   0.382
 1663SOL    HW215669   5.242   0.421   0.349
 1664SOL     OW15670   1.604   5.518   1.120
 1664SOL    HW115671   1.533   5.565   1.067
 1664SOL    HW215672   1.562   5.473   1.199
 1665SOL     OW15673   3.250   2.083   4.278
 1665SOL    HW115674   3.150   2.075   4.280
 1665SOL    HW215675   3.291   1.999   4.312
 1666SOL     OW15676   1.775   6.349   0.863
 1666SOL    HW115677   1.730   6.400   0.936
 1666SOL    HW215678   1.777   6.404   0.780
 1667SOL     OW15679   5.175   6.817   2.279
 1667SOL    HW115680   5.087   6.847   2.316
 1667SOL    HW215681   5.247   6.834   2.346
 1668SOL     OW15682   2.257   0.160   3.629
 1668SOL    HW115683   2.275   0.177   3.532
 1668SOL    HW215684   2.216   0.241   3.671
 1669SOL     OW15685   9.503   7.726   1.652
 1669SOL    HW115686   9.501   7.639   1.702
 1669SOL    HW215687   9.520   7.801   1.715
 1670SOL     OW15688   4.612   1.563   2.382
 1670SOL    HW115689   4.625   1.662   2.389
 1670SOL    HW215690   4.653   1.529   2.298
 1671SOL     OW15691   1.296   7.181   0.089
 1671SOL    HW115692   1.215   7.239   0.100
 1671SOL    HW215693   1.334   7.160   0.178
 1672SOL     OW15694   1.179   7.719   2.069
 1672SOL    HW115695   1.173   7.721   1.969
 1672SOL    HW215696   1.113   7.654   2.105
 1673SOL     OW15697   8.570   6.908   3.876
 1673SOL    HW115698   8.651   6.850   3.889
 1673SOL    HW215699   8.588   6.975   3.804
 1674SOL     OW15700   3.594   1.043   0.127
 1674SOL    HW115701   3.640   1.117   0.177
 1674SOL    HW215702   3.643   1.025   0.042
 1675SOL     OW15703   4.438   0.068   1.905
 1675SOL    HW115704   4.479   0.155   1.931
 1675SOL    HW215705   4.499   0.019   1.843
 1676SOL     OW15706   7.176   0.168   2.503
 1676SOL    HW115707   7.190   0.125   2.414
 1676SOL    HW215708   7.107   0.117   2.554
 1677SOL     OW15709   4.283   1.599   1.364
 1677SOL    HW115710   4.365   1.554   1.397
 1677SOL    HW215711   4.206   1.535   1.365
 1678SOL     OW15712   0.220   6.248   2.673
 1678SOL    HW115713   0.130   6.249   2.716
 1678SOL    HW215714   0.216   6.299   2.587
 1679SOL     OW15715   0.343   1.335   4.008
 1679SOL    HW115716   0.295   1.267   4.064
 1679SOL    HW215717   0.421   1.292   3.963
 1680SOL     OW15718   4.750   1.597   1.419
 1680SOL    HW115719   4.817   1.539   1.466
 1680SOL    HW215720   4.787   1.627   1.331
 1681SOL     OW15721   4.657   7.324   3.748
 1681SOL    HW115722   4.691   7.241   3.703
 1681SOL    HW215723   4.722   7.399   3.735
 1682SOL     OW15724   9.992   8.705   3.375
 1682SOL    HW115725   9.933   8.637   3.418
 1682SOL    HW215726   9.975   8.795   3.417
 1683SOL     OW15727   8.356   1.541   1.537
 1683SOL    HW115728   8.338   1.632   1.574
 1683SOL    HW215729   8.270   1.494   1.519
 1684SOL     OW15730   0.171   8.435   3.977
 1684SOL    HW115731   0.164   8.496   4.056
 1684SOL    HW215732   0.243   8.367   3.994
 1685SOL     OW15733   0.271   5.584   2.970
 1685SOL    HW115734   0.285   5.507   2.907
 1685SOL    HW215735   0.174   5.591   2.993
 1686SOL     OW15736   4.601   2.197   2.009
 1686SOL    HW115737   4.610   2.102   2.040
 1686SOL    HW215738   4.685   2.224   1.961
 1687SOL     OW15739   0.439   9.898   2.892
 1687SOL    HW115740   0.365   9.962   2.870
 1687SOL    HW215741   0.457   9.901   2.990
 1688SOL     OW15742   2.738   8.004   2.958
 1688SOL    HW115743   2.693   8.092   2.941
 1688SOL    HW215744   2.826   8.021   3.003
 1689SOL     OW15745   3.900   1.680   2.926
 1689SOL    HW115746   3.888   1.667   2.827
 1689SOL    HW215747   3.811   1.693   2.969
 1690SOL     OW15748   1.873   0.601   0.928
 1690SOL    HW115749   1.916   0.669   0.987
 1690SOL    HW215750   1.944   0.545   0.885
 1691SOL     OW15751   2.457   9.363   4.233
 1691SOL    HW115752   2.459   9.368   4.133
 1691SOL    HW215753   2.527   9.424   4.271
 1692SOL     OW15754   7.812   1.041   1.582
 1692SOL    HW115755   7.788   1.102   1.506
 1692SOL    HW215756   7.904   1.006   1.568
 1693SOL     OW15757   9.644   8.339   0.211
 1693SOL    HW115758   9.726   8.305   0.165
 1693SOL    HW215759   9.569   8.275   0.197
 1694SOL     OW15760   8.545   5.787   0.553
 1694SOL    HW115761   8.627   5.739   0.522
 1694SOL    HW215762   8.566   5.884   0.569
 1695SOL     OW15763   0.821   6.604   2.085
 1695SOL    HW115764   0.855   6.599   1.991
 1695SOL    HW215765   0.754   6.679   2.092
 1696SOL     OW15766   3.964   9.287   3.103
 1696SOL    HW115767   4.039   9.353   3.094
 1696SOL    HW215768   3.964   9.250   3.196
 1697SOL     OW15769   7.800   8.182   3.942
 1697SOL    HW115770   7.736   8.116   3.981
 1697SOL    HW215771   7.773   8.204   3.848
 1698SOL     OW15772   0.334   0.411   0.788
 1698SOL    HW115773   0.286   0.485   0.835
 1698SOL    HW215774   0.329   0.328   0.843
 1699SOL     OW15775   1.371   8.157   0.721
 1699SOL    HW115776   1.450   8.165   0.781
 1699SOL    HW215777   1.319   8.075   0.746
 1700SOL     OW15778   3.003   5.219   1.591
 1700SOL    HW115779   2.958   5.159   1.657
 1700SOL    HW215780   2.992   5.314   1.620
 1701SOL     OW15781   6.222   0.613   1.809
 1701SOL    HW115782   6.146   0.640   1.869
 1701SOL    HW215783   6.193   0.538   1.749
 1702SOL     OW15784   1.625   8.883   3.563
 1702SOL    HW115785   1.559   8.889   3.638
 1702SOL    HW215786   1.685   8.963   3.565
 1703SOL     OW15787   9.658   8.116   0.970
 1703SOL    HW115788   9.608   8.037   0.935
 1703SOL    HW215789   9.703   8.092   1.056
 1704SOL     OW15790   8.757   8.058   3.045
 1704SOL    HW115791   8.749   7.968   3.088
 1704SOL    HW215792   8.802   8.121   3.109
 1705SOL     OW15793   2.209   8.269   0.426
 1705SOL    HW115794   2.301   8.282   0.390
 1705SOL    HW215795   2.191   8.337   0.498
 1706SOL     OW15796   1.966   5.767   0.107
 1706SOL    HW115797   2.035   5.789   0.175
 1706SOL    HW215798   1.968   5.834   0.033
 1707SOL     OW15799   9.460   7.507   3.342
 1707SOL    HW115800   9.506   7.588   3.377
 1707SOL    HW215801   9.449   7.515   3.243
 1708SOL     OW15802   1.341   8.325   3.688
 1708SOL    HW115803   1.392   8.321   3.774
 1708SOL    HW215804   1.378   8.398   3.631
 1709SOL     OW15805   0.389   7.720   0.146
 1709SOL    HW115806   0.422   7.627   0.131
 1709SOL    HW215807   0.418   7.751   0.237
 1710SOL     OW15808   0.859   7.929   3.544
 1710SOL    HW115809   0.869   7.842   3.592
 1710SOL    HW215810   0.945   7.952   3.498
 1711SOL     OW15811   6.647   1.661   3.943
 1711SOL    HW115812   6.731   1.627   3.899
 1711SOL    HW215813   6.580   1.684   3.872
 1712SOL     OW15814   6.664   1.153   3.906
 1712SOL    HW115815   6.693   1.130   3.814
 1712SOL    HW215816   6.565   1.139   3.914
 1713SOL     OW15817   8.717   2.525   3.572
 1713SOL    HW115818   8.814   2.550   3.576
 1713SOL    HW215819   8.703   2.439   3.621
 1714SOL     OW15820   9.440   8.197   2.589
 1714SOL    HW115821   9.355   8.238   2.623
 1714SOL    HW215822   9.518   8.242   2.632
 1715SOL     OW15823   1.411   5.644   1.409
 1715SOL    HW115824   1.462   5.558   1.401
 1715SOL    HW215825   1.407   5.671   1.506
 1716SOL     OW15826   5.250   1.332   3.366
 1716SOL    HW115827   5.156   1.308   3.339
 1716SOL    HW215828   5.247   1.406   3.433
 1717SOL     OW15829   2.021   7.710   1.219
 1717SOL    HW115830   2.042   7.613   1.219
 1717SOL    HW215831   2.072   7.755   1.146
 1718SOL     OW15832   7.500   0.227   4.384
 1718SOL    HW115833   7.537   0.144   4.343
 1718SOL    HW215834   7.436   0.203   4.457
 1719SOL     OW15835   3.424   7.912   2.279
 1719SOL    HW115836   3.347   7.866   2.324
 1719SOL    HW215837   3.468   7.849   2.216
 1720SOL     OW15838   3.433   5.088   1.972
 1720SOL    HW115839   3.347   5.138   1.972
 1720SOL    HW215840   3.471   5.086   2.065
 1721SOL     OW15841   6.445   7.901   2.419
 1721SOL    HW115842   6.382   7.970   2.456
 1721SOL    HW215843   6.443   7.820   2.476
 1722SOL     OW15844   0.026   0.978   1.402
 1722SOL    HW115845   9.944   0.921   1.401
 1722SOL    HW215846   0.002   1.070   1.371
 1723SOL     OW15847   8.583   9.883   0.671
 1723SOL    HW115848   8.671   9.921   0.702
 1723SOL    HW215849   8.520   9.878   0.749
 1724SOL     OW15850   8.297   1.011   1.368
 1724SOL    HW115851   8.236   0.956   1.311
 1724SOL    HW215852   8.301   1.104   1.332
 1725SOL     OW15853   3.062   3.829   1.166
 1725SOL    HW115854   3.057   3.730   1.160
 1725SOL    HW215855   3.060   3.857   1.263
 1726SOL     OW15856   1.159   3.964   1.909
 1726SOL    HW115857   1.061   3.947   1.905
 1726SOL    HW215858   1.183   4.038   1.846
 1727SOL     OW15859   1.521   9.218   3.432
 1727SOL    HW115860   1.613   9.222   3.391
 1727SOL    HW215861   1.510   9.294   3.496
 1728SOL     OW15862   7.812   8.730   4.128
 1728SOL    HW115863   7.883   8.681   4.178
 1728SOL    HW215864   7.852   8.812   4.087
 1729SOL     OW15865   1.676   0.895   1.085
 1729SOL    HW115866   1.755   0.835   1.103
 1729SOL    HW215867   1.606   0.878   1.155
 1730SOL     OW15868   1.166   1.614   2.706
 1730SOL    HW115869   1.253   1.659   2.689
 1730SOL    HW215870   1.181   1.519   2.732
 1731SOL     OW15871   5.719   8.791   4.034
 1731SOL    HW115872   5.671   8.878   4.020
 1731SOL    HW215873   5.720   8.739   3.949
 1732SOL     OW15874   3.430   6.634   2.736
 1732SOL    HW115875   3.482   6.586   2.666
 1732SOL    HW215876   3.444   6.733   2.725
 1733SOL     OW15877   0.419   5.960   2.174
 1733SOL    HW115878   0.349   5.918   2.117
 1733SOL    HW215879   0.405   6.059   2.177
 1734SOL     OW15880   1.453   7.547   2.553
 1734SOL    HW115881   1.507   7.512   2.477
 1734SOL    HW215882   1.372   7.490   2.565
 1735SOL     OW15883   1.840   0.490   1.382
 1735SOL    HW115884   1.795   0.425   1.443
 1735SOL    HW215885   1.806   0.478   1.289
 1736SOL     OW15886   1.211   1.919   2.425
 1736SOL    HW115887   1.274   1.855   2.467
 1736SOL    HW215888   1.177   1.983   2.494
 1737SOL     OW15889   1.935   3.855   1.164
 1737SOL    HW115890   1.836   3.847   1.150
 1737SOL    HW215891   1.979   3.767   1.143
 1738SOL     OW15892   8.028   6.109   2.120
 1738SOL    HW115893   8.039   6.105   2.219
 1738SOL    HW215894   8.113   6.081   2.075
 1739SOL     OW15895   8.395   4.702   2.800
 1739SOL    HW115896   8.335   4.757   2.741
 1739SOL    HW215897   8.459   4.762   2.848
 1740SOL     OW15898   1.940   7.152   1.934
 1740SOL    HW115899   1.909   7.194   2.019
 1740SOL    HW215900   1.920   7.212   1.857
 1741SOL     OW15901   9.652   8.458   1.166
 1741SOL    HW115902   9.634   8.370   1.122
 1741SOL    HW215903   9.585   8.525   1.134
 1742SOL     OW15904   4.095   8.350   1.473
 1742SOL    HW115905   4.047   8.297   1.543
 1742SOL    HW215906   4.044   8.434   1.453
 1743SOL     OW15907   7.921   3.671   0.181
 1743SOL    HW115908   8.003   3.616   0.200
 1743SOL    HW215909   7.842   3.628   0.224
 1744SOL     OW15910   9.246   7.187   1.103
 1744SOL    HW115911   9.191   7.252   1.154
 1744SOL    HW215912   9.187   7.127   1.050
 1745SOL     OW15913   0.442   9.165   2.017
 1745SOL    HW115914   0.381   9.103   1.967
 1745SOL    HW215915   0.535   9.155   1.982
 1746SOL     OW15916   2.186   1.375   3.138
 1746SOL    HW115917   2.237   1.361   3.053
 1746SOL    HW215918   2.148   1.467   3.139
 1747SOL     OW15919   6.055   7.588   2.730
 1747SOL    HW115920   6.063   7.566   2.827
 1747SOL    HW215921   6.011   7.677   2.720
 1748SOL     OW15922   7.537   6.432   4.107
 1748SOL    HW115923   7.502   6.525   4.117
 1748SOL    HW215924   7.469   6.376   4.061
 1749SOL     OW15925   1.885   2.147   1.685
 1749SOL    HW115926   1.971   2.155   1.737
 1749SOL    HW215927   1.854   2.239   1.658
 1750SOL     OW15928   3.946   2.001   3.788
 1750SOL    HW115929   4.004   2.082   3.784
 1750SOL    HW215930   3.950   1.952   3.701
 1751SOL     OW15931   0.058   4.513   1.777
 1751SOL    HW115932   0.114   4.530   1.858
 1751SOL    HW215933   0.110   4.460   1.710
 1752SOL     OW15934   4.450   9.566   3.766
 1752SOL    HW115935   4.384   9.560   3.841
 1752SOL    HW215936   4.406   9.534   3.682
 1753SOL     OW15937   2.820   0.454   2.540
 1753SOL    HW115938   2.825   0.383   2.611
 1753SOL    HW215939   2.808   0.410   2.451
 1754SOL     OW15940   3.132   2.487   2.555
 1754SOL    HW115941   3.161   2.433   2.634
 1754SOL    HW215942   3.102   2.427   2.481
 1755SOL     OW15943   1.127   8.584   2.672
 1755SOL    HW115944   1.220   8.570   2.706
 1755SOL    HW215945   1.062   8.542   2.736
 1756SOL     OW15946   9.348   6.873   2.837
 1756SOL    HW115947   9.415   6.890   2.765
 1756SOL    HW215948   9.340   6.953   2.896
 1757SOL     OW15949   1.258   9.418   0.464
 1757SOL    HW115950   1.314   9.443   0.542
 1757SOL    HW215951   1.177   9.369   0.496
 1758SOL     OW15952   1.440   8.978   0.466
 1758SOL    HW115953   1.435   9.070   0.429
 1758SOL    HW215954   1.484   8.980   0.556
 1759SOL     OW15955   3.966   3.554   0.102
 1759SOL    HW115956   3.975   3.500   0.018
 1759SOL    HW215957   3.909   3.504   0.167
 1760SOL     OW15958   5.525   0.276   2.235
 1760SOL    HW115959   5.623   0.258   2.230
 1760SOL    HW215960   5.480   0.201   2.283
 1761SOL     OW15961   0.064   6.276   0.509
 1761SOL    HW115962   0.025   6.212   0.444
 1761SOL    HW215963   0.164   6.278   0.499
 1762SOL     OW15964   1.199   4.492   2.699
 1762SOL    HW115965   1.126   4.560   2.704
 1762SOL    HW215966   1.205   4.444   2.787
 1763SOL     OW15967   1.876   1.245   3.670
 1763SOL    HW115968   1.850   1.150   3.685
 1763SOL    HW215969   1.798   1.296   3.635
 1764SOL     OW15970   0.825   0.190   1.592
 1764SOL    HW115971   0.877   0.146   1.519
 1764SOL    HW215972   0.878   0.267   1.629
 1765SOL     OW15973   8.175   0.582   2.866
 1765SOL    HW115974   8.258   0.631   2.841
 1765SOL    HW215975   8.170   0.573   2.966
 1766SOL     OW15976   0.993   7.522   2.138
 1766SOL    HW115977   1.047   7.440   2.124
 1766SOL    HW215978   0.901   7.508   2.101
 1767SOL     OW15979   1.774   2.398   2.214
 1767SOL    HW115980   1.867   2.370   2.188
 1767SOL    HW215981   1.739   2.462   2.145
 1768SOL     OW15982   1.203   0.893   3.512
 1768SOL    HW115983   1.103   0.886   3.509
 1768SOL    HW215984   1.243   0.805   3.487
 1769SOL     OW15985   0.079   2.882   0.998
 1769SOL    HW115986   0.137   2.809   1.036
 1769SOL    HW215987   0.052   2.858   0.905
 1770SOL     OW15988   2.199   7.004   2.328
 1770SOL    HW115989   2.294   6.978   2.315
 1770SOL    HW215990   2.140   6.944   2.273
 1771SOL     OW15991   3.463   7.728   1.847
 1771SOL    HW115992   3.512   7.643   1.832
 1771SOL    HW215993   3.385   7.733   1.785
 1772SOL     OW15994   1.282   3.940   0.227
 1772SOL    HW115995   1.207   3.874   0.221
 1772SOL    HW215996   1.361   3.904   0.179
 1773SOL     OW15997   2.174   9.533   0.751
 1773SOL    HW115998   2.126   9.481   0.681
 1773SOL    HW215999   2.113   9.604   0.787
 1774SOL     OW16000   1.280   3.302   2.622
 1774SOL    HW116001   1.270   3.402   2.619
 1774SOL    HW216002   1.297   3.267   2.529
 1775SOL     OW16003   4.569   0.274   4.154
 1775SOL    HW116004   4.481   0.227   4.152
 1775SOL    HW216005   4.625   0.237   4.228
 1776SOL     OW16006   4.090   0.170   0.086
 1776SOL    HW116007   4.116   0.088   0.035
 1776SOL    HW216008   4.168   0.200   0.141
 1777SOL     OW16009   0.559   2.696   1.989
 1777SOL    HW116010   0.609   2.764   1.935
 1777SOL    HW216011   0.580   2.709   2.086
 1778SOL     OW16012   1.532   3.605   2.769
 1778SOL    HW116013   1.542   3.693   2.722
 1778SOL    HW216014   1.622   3.571   2.797
 1779SOL     OW16015   2.081   9.787   1.514
 1779SOL    HW116016   2.061   9.872   1.465
 1779SOL    HW216017   2.043   9.710   1.463
 1780SOL     OW16018   2.140   1.651   0.669
 1780SOL    HW116019   2.115   1.569   0.719
 1780SOL    HW216020   2.234   1.645   0.638
 1781SOL     OW16021   9.013   7.247   1.843
 1781SOL    HW116022   9.057   7.220   1.757
 1781SOL    HW216023   8.916   7.222   1.839
 1782SOL     OW16024   7.697   0.659   2.884
 1782SOL    HW116025   7.780   0.637   2.832
 1782SOL    HW216026   7.626   0.591   2.863
 1783SOL     OW16027   0.154   2.309   2.237
 1783SOL    HW116028   0.197   2.232   2.284
 1783SOL    HW216029   0.195   2.321   2.147
 1784SOL     OW16030   9.696   3.436   3.531
 1784SOL    HW116031   9.605   3.406   3.560
 1784SOL    HW216032   9.763   3.414   3.602
 1785SOL     OW16033   6.108   0.264   3.173
 1785SOL    HW116034   6.011   0.262   3.148
 1785SOL    HW216035   6.160   0.308   3.099
 1786SOL     OW16036   3.679   4.415   0.905
 1786SOL    HW116037   3.756   4.446   0.850
 1786SOL    HW216038   3.663   4.317   0.888
 1787SOL     OW16039   4.539   9.584   4.221
 1787SOL    HW116040   4.447   9.622   4.235
 1787SOL    HW216041   4.588   9.641   4.155
 1788SOL     OW16042   8.827   3.440   1.197
 1788SOL    HW116043   8.751   3.415   1.258
 1788SOL    HW216044   8.790   3.476   1.111
 1789SOL     OW16045   9.774   2.982   3.983
 1789SOL    HW116046   9.736   3.026   3.901
 1789SOL    HW216047   9.717   2.905   4.009
 1790SOL     OW16048   5.118   8.862   2.142
 1790SOL    HW116049   5.048   8.792   2.152
 1790SOL    HW216050   5.104   8.933   2.211
 1791SOL     OW16051   7.929   2.476   3.802
 1791SOL    HW116052   7.891   2.539   3.870
 1791SOL    HW216053   7.859   2.410   3.776
 1792SOL     OW16054   2.361   5.003   1.785
 1792SOL    HW116055   2.375   4.904   1.777
 1792SOL    HW216056   2.288   5.020   1.851
 1793SOL     OW16057   1.545   0.523   3.348
 1793SOL    HW116058   1.583   0.432   3.330
 1793SOL    HW216059   1.514   0.564   3.261
 1794SOL     OW16060   8.855   6.978   3.536
 1794SOL    HW116061   8.850   6.881   3.561
 1794SOL    HW216062   8.769   7.005   3.492
 1795SOL     OW16063   2.797   2.672   4.330
 1795SOL    HW116064   2.890   2.694   4.358
 1795SOL    HW216065   2.742   2.756   4.330
 1796SOL     OW16066   8.046   9.691   1.913
 1796SOL    HW116067   8.038   9.791   1.917
 1796SOL    HW216068   7.982   9.656   1.845
 1797SOL     OW16069   7.742   6.748   1.912
 1797SOL    HW116070   7.712   6.814   1.980
 1797SOL    HW216071   7.717   6.780   1.821
 1798SOL     OW16072   7.339   8.826   0.478
 1798SOL    HW116073   7.302   8.788   0.394
 1798SOL    HW216074   7.371   8.920   0.461
 1799SOL     OW16075   6.584   0.239   4.111
 1799SOL    HW116076   6.530   0.214   4.030
 1799SOL    HW216077   6.549   0.325   4.149
 1800SOL     OW16078   4.303   9.590   1.461
 1800SOL    HW116079   4.321   9.683   1.493
 1800SOL    HW216080   4.215   9.588   1.413
 1801SOL     OW16081   0.338   9.204   4.463
 1801SOL    HW116082   0.310   9.114   4.429
 1801SOL    HW216083   0.296   9.220   4.552
 1802SOL     OW16084   7.682   6.846   1.663
 1802SOL    HW116085   7.665   6.942   1.640
 1802SOL    HW216086   7.711   6.797   1.580
 1803SOL     OW16087   9.508   0.308   2.062
 1803SOL    HW116088   9.598   0.287   2.100
 1803SOL    HW216089   9.516   0.326   1.964
 1804SOL     OW16090   3.480   1.307   1.059
 1804SOL    HW116091   3.408   1.371   1.088
 1804SOL    HW216092   3.460   1.216   1.094
 1805SOL     OW16093   0.595   1.303   1.792
 1805SOL    HW116094   0.528   1.228   1.798
 1805SOL    HW216095   0.655   1.287   1.714
 1806SOL     OW16096   1.941   6.553   3.156
 1806SOL    HW116097   2.021   6.562   3.215
 1806SOL    HW216098   1.953   6.474   3.095
 1807SOL     OW16099   1.183   6.576   1.836
 1807SOL    HW116100   1.232   6.634   1.901
 1807SOL    HW216101   1.086   6.598   1.837
 1808SOL     OW16102   1.233   8.290   2.231
 1808SOL    HW116103   1.253   8.377   2.276
 1808SOL    HW216104   1.294   8.219   2.265
 1809SOL     OW16105   1.077   2.998   3.875
 1809SOL    HW116106   1.015   3.072   3.901
 1809SOL    HW216107   1.025   2.915   3.859
 1810SOL     OW16108   5.857   0.917   3.255
 1810SOL    HW116109   5.868   0.858   3.336
 1810SOL    HW216110   5.799   0.995   3.278
 1811SOL     OW16111   9.037   2.808   0.871
 1811SOL    HW116112   9.037   2.895   0.919
 1811SOL    HW216113   9.001   2.736   0.931
 1812SOL     OW16114   3.445   9.599   1.509
 1812SOL    HW116115   3.446   9.589   1.410
 1812SOL    HW216116   3.523   9.551   1.549
 1813SOL     OW16117   3.352   8.565   1.455
 1813SOL    HW116118   3.334   8.479   1.409
 1813SOL    HW216119   3.268   8.619   1.460
 1814SOL     OW16120   1.794   2.936   2.401
 1814SOL    HW116121   1.750   2.853   2.368
 1814SOL    HW216122   1.891   2.918   2.419
 1815SOL     OW16123   7.131   0.101   0.231
 1815SOL    HW116124   7.110   0.037   0.305
 1815SOL    HW216125   7.226   0.087   0.202
 1816SOL     OW16126   6.765   9.211   4.388
 1816SOL    HW116127   6.746   9.239   4.482
 1816SOL    HW216128   6.803   9.288   4.337
 1817SOL     OW16129   2.863   6.804   3.285
 1817SOL    HW116130   2.909   6.822   3.198
 1817SOL    HW216131   2.925   6.825   3.361
 1818SOL     OW16132   9.390   4.604   1.261
 1818SOL    HW116133   9.442   4.527   1.223
 1818SOL    HW216134   9.452   4.675   1.291
 1819SOL     OW16135   9.876   4.995   0.352
 1819SOL    HW116136   9.787   4.984   0.308
 1819SOL    HW216137   9.912   5.086   0.333
 1820SOL     OW16138   9.843   6.026   3.165
 1820SOL    HW116139   9.840   6.125   3.153
 1820SOL    HW216140   9.752   5.992   3.186
 1821SOL     OW16141   5.093   6.139   1.298
 1821SOL    HW116142   5.151   6.074   1.248
 1821SOL    HW216143   5.129   6.152   1.390
 1822SOL     OW16144   8.267   6.006   2.029
 1822SOL    HW116145   8.313   6.047   2.107
 1822SOL    HW216146   8.279   5.906   2.032
 1823SOL     OW16147   8.462   5.012   1.022
 1823SOL    HW116148   8.490   5.037   1.115
 1823SOL    HW216149   8.527   4.945   0.985
 1824SOL     OW16150   9.927   7.250   1.679
 1824SOL    HW116151   9.887   7.200   1.756
 1824SOL    HW216152   9.857   7.309   1.639
 1825SOL     OW16153   2.028   0.887   1.602
 1825SOL    HW116154   1.958   0.926   1.543
 1825SOL    HW216155   2.119   0.910   1.566
 1826SOL     OW16156   9.218   2.291   2.002
 1826SOL    HW116157   9.200   2.202   2.045
 1826SOL    HW216158   9.150   2.308   1.931
 1827SOL     OW16159   1.031   7.267   0.729
 1827SOL    HW116160   1.122   7.229   0.744
 1827SOL    HW216161   0.984   7.276   0.817
 1828SOL     OW16162   0.127   2.723   2.219
 1828SOL    HW116163   0.166   2.710   2.128
 1828SOL    HW216164   0.043   2.777   2.212
 1829SOL     OW16165   3.963   1.871   3.546
 1829SOL    HW116166   3.873   1.889   3.507
 1829SOL    HW216167   4.029   1.935   3.506
 1830SOL     OW16168   7.264   0.049   3.803
 1830SOL    HW116169   7.355   0.009   3.810
 1830SOL    HW216170   7.234   0.079   3.894
 1831SOL     OW16171   1.822   7.608   2.566
 1831SOL    HW116172   1.867   7.600   2.655
 1831SOL    HW216173   1.794   7.703   2.551
 1832SOL     OW16174   7.711   2.893   1.558
 1832SOL    HW116175   7.739   2.823   1.493
 1832SOL    HW216176   7.788   2.919   1.615
 1833SOL     OW16177   3.968   7.284   3.848
 1833SOL    HW116178   3.960   7.345   3.927
 1833SOL    HW216179   3.886   7.227   3.841
 1834SOL     OW16180   2.529   0.477   2.991
 1834SOL    HW116181   2.534   0.441   3.084
 1834SOL    HW216182   2.542   0.403   2.926
 1835SOL     OW16183   1.669   0.687   0.703
 1835SOL    HW116184   1.723   0.637   0.771
 1835SOL    HW216185   1.718   0.769   0.675
 1836SOL     OW16186   8.109   0.668   1.602
 1836SOL    HW116187   8.205   0.644   1.585
 1836SOL    HW216188   8.055   0.645   1.521
 1837SOL     OW16189   0.185   7.252   1.779
 1837SOL    HW116190   0.093   7.247   1.740
 1837SOL    HW216191   0.178   7.255   1.879
 1838SOL     OW16192   3.232   2.418   1.308
 1838SOL    HW116193   3.250   2.424   1.406
 1838SOL    HW216194   3.302   2.363   1.264
 1839SOL     OW16195   2.183   8.975   0.437
 1839SOL    HW116196   2.148   8.970   0.344
 1839SOL    HW216197   2.258   9.041   0.441
 1840SOL     OW16198   0.018   1.209   2.366
 1840SOL    HW116199   0.097   1.267   2.346
 1840SOL    HW216200   9.965   1.250   2.441
 1841SOL     OW16201   3.832   3.919   2.588
 1841SOL    HW116202   3.823   3.887   2.683
 1841SOL    HW216203   3.864   4.014   2.588
 1842SOL     OW16204   8.709   7.991   1.056
 1842SOL    HW116205   8.705   8.020   0.960
 1842SOL    HW216206   8.715   7.892   1.060
 1843SOL     OW16207   6.533   7.476   2.207
 1843SOL    HW116208   6.512   7.518   2.119
 1843SOL    HW216209   6.448   7.467   2.260
 1844SOL     OW16210   1.211   8.206   4.285
 1844SOL    HW116211   1.302   8.181   4.318
 1844SOL    HW216212   1.160   8.123   4.262
 1845SOL     OW16213   0.625   5.368   2.885
 1845SOL    HW116214   0.605   5.457   2.928
 1845SOL    HW216215   0.700   5.379   2.821
 1846SOL     OW16216   2.266   4.232   0.983
 1846SOL    HW116217   2.276   4.311   1.043
 1846SOL    HW216218   2.181   4.185   1.003
 1847SOL     OW16219   1.532   8.356   3.048
 1847SOL    HW116220   1.446   8.407   3.053
 1847SOL    HW216221   1.595   8.403   2.987
 1848SOL     OW16222   2.552   7.158   3.954
 1848SOL    HW116223   2.530   7.136   3.859
 1848SOL    HW216224   2.532   7.078   4.012
 1849SOL     OW16225   2.563   0.275   2.803
 1849SOL    HW116226   2.663   0.277   2.799
 1849SOL    HW216227   2.527   0.239   2.717
 1850SOL     OW16228   0.190   9.363   0.176
 1850SOL    HW116229   0.181   9.435   0.245
 1850SOL    HW216230   0.194   9.404   0.085
 1851SOL     OW16231   2.906   4.526   2.088
 1851SOL    HW116232   2.930   4.547   1.994
 1851SOL    HW216233   2.980   4.473   2.130
 1852SOL     OW16234   0.291   7.021   4.087
 1852SOL    HW116235   0.339   7.108   4.099
 1852SOL    HW216236   0.351   6.957   4.039
 1853SOL     OW16237   0.462   9.700   4.126
 1853SOL    HW116238   0.431   9.793   4.111
 1853SOL    HW216239   0.482   9.657   4.038
 1854SOL     OW16240   4.534   0.964   2.863
 1854SOL    HW116241   4.448   1.014   2.870
 1854SOL    HW216242   4.518   0.868   2.886
 1855SOL     OW16243   5.180   8.431   1.679
 1855SOL    HW116244   5.128   8.513   1.654
 1855SOL    HW216245   5.213   8.387   1.595
 1856SOL     OW16246   1.064   1.683   1.906
 1856SOL    HW116247   1.054   1.699   1.807
 1856SOL    HW216248   1.091   1.587   1.921
 1857SOL     OW16249   0.232   0.074   2.852
 1857SOL    HW116250   0.146   0.027   2.832
 1857SOL    HW216251   0.215   0.150   2.915
 1858SOL     OW16252   8.565   3.834   3.177
 1858SOL    HW116253   8.509   3.780   3.114
 1858SOL    HW216254   8.549   3.804   3.271
 1859SOL     OW16255   1.273   2.019   2.180
 1859SOL    HW116256   1.244   1.973   2.263
 1859SOL    HW216257   1.251   2.117   2.186
 1860SOL     OW16258   1.491   8.098   3.353
 1860SOL    HW116259   1.496   8.002   3.322
 1860SOL    HW216260   1.570   8.148   3.317
 1861SOL     OW16261   9.088   7.967   2.665
 1861SOL    HW116262   9.097   8.005   2.573
 1861SOL    HW216263   8.997   7.989   2.701
 1862SOL     OW16264   3.304   1.649   0.898
 1862SOL    HW116265   3.296   1.578   0.967
 1862SOL    HW216266   3.318   1.606   0.808
 1863SOL     OW16267   1.953   4.331   2.377
 1863SOL    HW116268   1.897   4.348   2.296
 1863SOL    HW216269   2.008   4.412   2.397
 1864SOL     OW16270   8.691   3.147   0.858
 1864SOL    HW116271   8.697   3.109   0.951
 1864SOL    HW216272   8.601   3.189   0.846
 1865SOL     OW16273   2.453   9.500   1.615
 1865SOL    HW116274   2.433   9.452   1.530
 1865SOL    HW216275   2.552   9.503   1.630
 1866SOL     OW16276   1.469   4.251   2.904
 1866SOL    HW116277   1.472   4.224   3.000
 1866SOL    HW216278   1.510   4.180   2.848
 1867SOL     OW16279   7.284   7.669   1.948
 1867SOL    HW116280   7.210   7.626   2.000
 1867SOL    HW216281   7.259   7.763   1.925
 1868SOL     OW16282   5.058   8.052   3.013
 1868SOL    HW116283   4.997   7.983   3.054
 1868SOL    HW216284   5.074   8.029   2.917
 1869SOL     OW16285   0.373   6.710   0.466
 1869SOL    HW116286   0.375   6.796   0.516
 1869SOL    HW216287   0.358   6.634   0.529
 1870SOL     OW16288   0.086   4.622   3.541
 1870SOL    HW116289   0.120   4.702   3.492
 1870SOL    HW216290   0.164   4.564   3.568
 1871SOL     OW16291   2.831   1.384   0.178
 1871SOL    HW116292   2.837   1.332   0.264
 1871SOL    HW216293   2.749   1.356   0.128
 1872SOL     OW16294   1.185   6.663   4.239
 1872SOL    HW116295   1.233   6.677   4.325
 1872SOL    HW216296   1.157   6.751   4.201
 1873SOL     OW16297   4.369   8.184   4.003
 1873SOL    HW116298   4.338   8.272   4.039
 1873SOL    HW216299   4.427   8.199   3.924
 1874SOL     OW16300   5.662   8.382   2.007
 1874SOL    HW116301   5.696   8.402   1.915
 1874SOL    HW216302   5.564   8.402   2.011
 1875SOL     OW16303   1.295   1.232   4.263
 1875SOL    HW116304   1.241   1.150   4.248
 1875SOL    HW216305   1.352   1.250   4.182
 1876SOL     OW16306   1.812   0.734   2.459
 1876SOL    HW116307   1.736   0.792   2.429
 1876SOL    HW216308   1.828   0.662   2.392
 1877SOL     OW16309   8.689   6.500   0.406
 1877SOL    HW116310   8.653   6.591   0.386
 1877SOL    HW216311   8.731   6.500   0.497
 1878SOL     OW16312   3.888   7.012   2.772
 1878SOL    HW116313   3.933   6.941   2.827
 1878SOL    HW216314   3.834   6.968   2.700
 1879SOL     OW16315   2.783   5.269   2.558
 1879SOL    HW116316   2.811   5.361   2.585
 1879SOL    HW216317   2.853   5.203   2.587
 1880SOL     OW16318   4.806   7.305   1.900
 1880SOL    HW116319   4.841   7.216   1.870
 1880SOL    HW216320   4.744   7.292   1.978
 1881SOL     OW16321   8.709   7.410   3.951
 1881SOL    HW116322   8.758   7.328   3.920
 1881SOL    HW216323   8.757   7.491   3.918
 1882SOL     OW16324   7.977   0.203   2.641
 1882SOL    HW116325   7.916   0.124   2.635
 1882SOL    HW216326   7.925   0.287   2.631
 1883SOL     OW16327   0.172   4.105   1.636
 1883SOL    HW116328   0.106   4.060   1.576
 1883SOL    HW216329   0.235   4.037   1.674
 1884SOL     OW16330   7.700   6.281   2.384
 1884SOL    HW116331   7.769   6.276   2.456
 1884SOL    HW216332   7.729   6.349   2.316
 1885SOL     OW16333   0.173   2.632   0.822
 1885SOL    HW116334   0.227   2.653   0.903
 1885SOL    HW216335   0.080   2.606   0.848
 1886SOL     OW16336   9.305   6.831   1.413
 1886SOL    HW116337   9.323   6.739   1.448
 1886SOL    HW216338   9.244   6.879   1.476
 1887SOL     OW16339   2.226   1.438   1.700
 1887SOL    HW116340   2.218   1.339   1.705
 1887SOL    HW216341   2.137   1.478   1.677
 1888SOL     OW16342   9.816   9.065   0.250
 1888SOL    HW116343   9.860   8.979   0.276
 1888SOL    HW216344   9.724   9.047   0.215
 1889SOL     OW16345   9.871   6.451   2.497
 1889SOL    HW116346   9.807   6.433   2.423
 1889SOL    HW216347   9.857   6.544   2.532
 1890SOL     OW16348   0.222   9.815   4.310
 1890SOL    HW116349   0.123   9.807   4.310
 1890SOL    HW216350   0.262   9.736   4.358
 1891SOL     OW16351   1.758   2.783   3.828
 1891SOL    HW116352   1.730   2.854   3.893
 1891SOL    HW216353   1.854   2.795   3.804
 1892SOL     OW16354   3.774   7.494   1.022
 1892SOL    HW116355   3.768   7.508   0.924
 1892SOL    HW216356   3.705   7.427   1.051
 1893SOL     OW16357   2.962   4.194   3.546
 1893SOL    HW116358   2.914   4.106   3.553
 1893SOL    HW216359   2.992   4.208   3.452
 1894SOL     OW16360   6.551   9.762   3.225
 1894SOL    HW116361   6.610   9.807   3.292
 1894SOL    HW216362   6.562   9.663   3.233
 1895SOL     OW16363   1.434   3.545   3.617
 1895SOL    HW116364   1.482   3.591   3.542
 1895SOL    HW216365   1.346   3.511   3.583
 1896SOL     OW16366   6.886   1.277   3.298
 1896SOL    HW116367   6.941   1.334   3.236
 1896SOL    HW216368   6.908   1.299   3.392
 1897SOL     OW16369   5.103   8.904   1.341
 1897SOL    HW116370   5.188   8.882   1.294
 1897SOL    HW216371   5.123   8.958   1.423
 1898SOL     OW16372   8.617   6.639   1.430
 1898SOL    HW116373   8.579   6.556   1.389
 1898SOL    HW216374   8.598   6.717   1.371
 1899SOL     OW16375   2.585   5.589   0.404
 1899SOL    HW116376   2.519   5.552   0.470
 1899SOL    HW216377   2.665   5.623   0.454
 1900SOL     OW16378   1.078   2.820   3.575
 1900SOL    HW116379   1.074   2.828   3.475
 1900SOL    HW216380   1.152   2.877   3.610
 1901SOL     OW16381   8.304   3.419   3.761
 1901SOL    HW116382   8.321   3.424   3.860
 1901SOL    HW216383   8.206   3.411   3.744
 1902SOL     OW16384   4.769   3.462   0.577
 1902SOL    HW116385   4.707   3.530   0.537
 1902SOL    HW216386   4.752   3.373   0.536
 1903SOL     OW16387   1.299   8.879   3.511
 1903SOL    HW116388   1.392   8.914   3.499
 1903SOL    HW216389   1.285   8.801   3.450
 1904SOL     OW16390   8.052   5.778   0.698
 1904SOL    HW116391   8.140   5.793   0.653
 1904SOL    HW216392   8.000   5.863   0.700
 1905SOL     OW16393   1.505   2.987   2.104
 1905SOL    HW116394   1.576   2.934   2.058
 1905SOL    HW216395   1.426   2.998   2.043
 1906SOL     OW16396   3.500   8.242   2.737
 1906SOL    HW116397   3.586   8.201   2.767
 1906SOL    HW216398   3.432   8.235   2.811
 1907SOL     OW16399   4.472   7.772   1.708
 1907SOL    HW116400   4.401   7.702   1.701
 1907SOL    HW216401   4.438   7.848   1.763
 1908SOL     OW16402   7.129   8.505   1.559
 1908SOL    HW116403   7.211   8.474   1.606
 1908SOL    HW216404   7.095   8.434   1.498
 1909SOL     OW16405   4.221   2.547   4.291
 1909SOL    HW116406   4.143   2.563   4.351
 1909SOL    HW216407   4.296   2.608   4.315
 1910SOL     OW16408   2.102   7.180   0.858
 1910SOL    HW116409   2.125   7.247   0.929
 1910SOL    HW216410   2.147   7.093   0.879
 1911SOL     OW16411   1.231   6.294   2.100
 1911SOL    HW116412   1.301   6.365   2.092
 1911SOL    HW216413   1.155   6.328   2.155
 1912SOL     OW16414   3.394   9.413   2.872
 1912SOL    HW116415   3.366   9.337   2.931
 1912SOL    HW216416   3.373   9.392   2.777
 1913SOL     OW16417   7.380   8.404   3.980
 1913SOL    HW116418   7.291   8.369   4.010
 1913SOL    HW216419   7.419   8.341   3.913
 1914SOL     OW16420   8.682   3.610   3.784
 1914SOL    HW116421   8.670   3.516   3.815
 1914SOL    HW216422   8.700   3.670   3.863
 1915SOL     OW16423   2.277   2.418   2.096
 1915SOL    HW116424   2.353   2.415   2.032
 1915SOL    HW216425   2.271   2.508   2.138
 1916SOL     OW16426   4.779   9.276   1.629
 1916SOL    HW116427   4.842   9.202   1.653
 1916SOL    HW216428   4.704   9.278   1.695
 1917SOL     OW16429   0.597   3.234   3.268
 1917SOL    HW116430   0.499   3.241   3.284
 1917SOL    HW216431   0.641   3.321   3.291
 1918SOL     OW16432   4.732   1.134   4.162
 1918SOL    HW116433   4.743   1.046   4.208
 1918SOL    HW216434   4.796   1.141   4.086
 1919SOL     OW16435   0.629   5.063   1.554
 1919SOL    HW116436   0.555   5.101   1.499
 1919SOL    HW216437   0.629   5.106   1.644
 1920SOL     OW16438   5.107   8.089   3.740
 1920SOL    HW116439   5.048   8.161   3.776
 1920SOL    HW216440   5.096   8.006   3.795
 1921SOL     OW16441   1.526   0.956   2.939
 1921SOL    HW116442   1.518   0.876   2.880
 1921SOL    HW216443   1.500   0.933   3.032
 1922SOL     OW16444   9.158   4.877   3.265
 1922SOL    HW116445   9.090   4.828   3.210
 1922SOL    HW216446   9.135   4.974   3.267
 1923SOL     OW16447   1.145   0.578   3.202
 1923SOL    HW116448   1.149   0.486   3.240
 1923SOL    HW216449   1.203   0.584   3.121
 1924SOL     OW16450   1.157   7.301   2.101
 1924SOL    HW116451   1.099   7.264   2.029
 1924SOL    HW216452   1.248   7.321   2.063
 1925SOL     OW16453   2.247   3.876   2.347
 1925SOL    HW116454   2.252   3.810   2.422
 1925SOL    HW216455   2.152   3.892   2.322
 1926SOL     OW16456   3.884   0.608   2.147
 1926SOL    HW116457   3.824   0.646   2.218
 1926SOL    HW216458   3.868   0.655   2.061
 1927SOL     OW16459   0.676   7.950   3.120
 1927SOL    HW116460   0.762   7.921   3.080
 1927SOL    HW216461   0.611   7.874   3.119
 1928SOL     OW16462   8.094   1.574   0.563
 1928SOL    HW116463   8.037   1.654   0.544
 1928SOL    HW216464   8.048   1.492   0.529
 1929SOL     OW16465   9.692   1.493   2.850
 1929SOL    HW116466   9.650   1.580   2.824
 1929SOL    HW216467   9.668   1.423   2.783
 1930SOL     OW16468   7.672   8.202   2.201
 1930SOL    HW116469   7.609   8.200   2.278
 1930SOL    HW216470   7.763   8.229   2.232
 1931SOL     OW16471   4.010   3.132   4.251
 1931SOL    HW116472   3.966   3.108   4.164
 1931SOL    HW216473   4.044   3.049   4.295
 1932SOL     OW16474   9.590   4.382   1.510
 1932SOL    HW116475   9.653   4.322   1.559
 1932SOL    HW216476   9.633   4.472   1.497
 1933SOL     OW16477   8.650   6.180   2.234
 1933SOL    HW116478   8.676   6.189   2.138
 1933SOL    HW216479   8.693   6.252   2.287
 1934SOL     OW16480   1.348   2.650   1.598
 1934SOL    HW116481   1.410   2.595   1.542
 1934SOL    HW216482   1.290   2.590   1.652
 1935SOL     OW16483   3.061   3.882   1.431
 1935SOL    HW116484   2.990   3.889   1.502
 1935SOL    HW216485   3.150   3.903   1.471
 1936SOL     OW16486   4.122   2.131   0.888
 1936SOL    HW116487   4.038   2.185   0.886
 1936SOL    HW216488   4.200   2.188   0.861
 1937SOL     OW16489   4.102   4.263   2.218
 1937SOL    HW116490   4.097   4.299   2.125
 1937SOL    HW216491   4.198   4.253   2.245
 1938SOL     OW16492   3.636   4.957   0.744
 1938SOL    HW116493   3.722   4.936   0.697
 1938SOL    HW216494   3.620   5.055   0.742
 1939SOL     OW16495   6.903   6.857   4.057
 1939SOL    HW116496   6.806   6.863   4.080
 1939SOL    HW216497   6.918   6.780   3.996
 1940SOL     OW16498   2.078   6.782   0.753
 1940SOL    HW116499   1.979   6.790   0.752
 1940SOL    HW216500   2.115   6.808   0.664
 1941SOL     OW16501   3.519   5.389   4.097
 1941SOL    HW116502   3.600   5.351   4.141
 1941SOL    HW216503   3.536   5.484   4.072
 1942SOL     OW16504   9.890   9.659   4.069
 1942SOL    HW116505   9.923   9.714   4.146
 1942SOL    HW216506   9.941   9.683   3.987
 1943SOL     OW16507   7.514   1.238   0.800
 1943SOL    HW116508   7.425   1.280   0.816
 1943SOL    HW216509   7.543   1.256   0.706
 1944SOL     OW16510   1.314   9.640   2.894
 1944SOL    HW116511   1.356   9.674   2.810
 1944SOL    HW216512   1.219   9.615   2.876
 1945SOL     OW16513   4.005   0.270   2.646
 1945SOL    HW116514   3.961   0.348   2.690
 1945SOL    HW216515   4.104   0.287   2.639
 1946SOL     OW16516   9.281   0.110   3.844
 1946SOL    HW116517   9.227   0.122   3.760
 1946SOL    HW216518   9.329   0.022   3.840
 1947SOL     OW16519   9.752   3.566   2.998
 1947SOL    HW116520   9.784   3.471   2.988
 1947SOL    HW216521   9.728   3.582   3.094
 1948SOL     OW16522   0.341   6.022   0.575
 1948SOL    HW116523   0.399   6.004   0.495
 1948SOL    HW216524   0.376   5.970   0.653
 1949SOL     OW16525   0.876   6.766   1.328
 1949SOL    HW116526   0.783   6.733   1.311
 1949SOL    HW216527   0.931   6.756   1.245
 1950SOL     OW16528   0.212   3.254   2.929
 1950SOL    HW116529   0.281   3.204   2.875
 1950SOL    HW216530   0.121   3.223   2.903
 1951SOL     OW16531   1.366   2.762   3.398
 1951SOL    HW116532   1.280   2.798   3.363
 1951SOL    HW216533   1.350   2.717   3.486
 1952SOL     OW16534   6.504   7.826   1.818
 1952SOL    HW116535   6.427   7.889   1.829
 1952SOL    HW216536   6.590   7.877   1.816
 1953SOL     OW16537   8.887   6.788   0.430
 1953SOL    HW116538   8.853   6.804   0.522
 1953SOL    HW216539   8.835   6.842   0.364
 1954SOL     OW16540   4.012   5.717   1.221
 1954SOL    HW116541   3.982   5.808   1.193
 1954SOL    HW216542   4.058   5.724   1.310
 1955SOL     OW16543   1.534   5.400   1.357
 1955SOL    HW116544   1.615   5.384   1.413
 1955SOL    HW216545   1.484   5.314   1.346
 1956SOL     OW16546   1.624   3.119   0.435
 1956SOL    HW116547   1.716   3.106   0.473
 1956SOL    HW216548   1.632   3.146   0.339
 1957SOL     OW16549   3.277   1.225   2.758
 1957SOL    HW116550   3.375   1.217   2.743
 1957SOL    HW216551   3.230   1.153   2.707
 1958SOL     OW16552   9.291   1.857   3.216
 1958SOL    HW116553   9.321   1.796   3.290
 1958SOL    HW216554   9.365   1.869   3.150
 1959SOL     OW16555   6.189   0.959   1.483
 1959SOL    HW116556   6.232   0.910   1.558
 1959SOL    HW216557   6.242   1.041   1.461
 1960SOL     OW16558   1.222   1.674   0.191
 1960SOL    HW116559   1.320   1.661   0.175
 1960SOL    HW216560   1.209   1.751   0.254
 1961SOL     OW16561   2.882   0.336   1.007
 1961SOL    HW116562   2.946   0.411   1.022
 1961SOL    HW216563   2.808   0.366   0.947
 1962SOL     OW16564   2.863   0.094   1.985
 1962SOL    HW116565   2.937   0.030   2.008
 1962SOL    HW216566   2.889   0.187   2.011
 1963SOL     OW16567   9.116   1.768   4.086
 1963SOL    HW116568   9.108   1.668   4.081
 1963SOL    HW216569   9.115   1.806   3.994
 1964SOL     OW16570   3.941   5.999   2.268
 1964SOL    HW116571   3.925   6.073   2.333
 1964SOL    HW216572   4.021   5.947   2.295
 1965SOL     OW16573   1.159   8.723   3.708
 1965SOL    HW116574   1.184   8.783   3.632
 1965SOL    HW216575   1.240   8.676   3.742
 1966SOL     OW16576   1.875   7.564   3.185
 1966SOL    HW116577   1.942   7.492   3.164
 1966SOL    HW216578   1.920   7.638   3.235
 1967SOL     OW16579   9.487   4.708   0.153
 1967SOL    HW116580   9.487   4.694   0.054
 1967SOL    HW216581   9.534   4.794   0.174
 1968SOL     OW16582   6.418   7.060   2.516
 1968SOL    HW116583   6.384   7.082   2.425
 1968SOL    HW216584   6.510   7.021   2.508
 1969SOL     OW16585   3.056   4.552   3.378
 1969SOL    HW116586   2.959   4.576   3.365
 1969SOL    HW216587   3.070   4.456   3.357
 1970SOL     OW16588   0.624   5.286   1.253
 1970SOL    HW116589   0.669   5.217   1.196
 1970SOL    HW216590   0.597   5.364   1.197
 1971SOL     OW16591   0.707   2.134   0.603
 1971SOL    HW116592   0.627   2.192   0.620
 1971SOL    HW216593   0.771   2.144   0.679
 1972SOL     OW16594   9.000   2.564   0.437
 1972SOL    HW116595   8.910   2.531   0.409
 1972SOL    HW216596   8.989   2.645   0.494
 1973SOL     OW16597   6.651   0.216   0.404
 1973SOL    HW116598   6.744   0.220   0.368
 1973SOL    HW216599   6.650   0.160   0.487
 1974SOL     OW16600   5.296   1.501   3.603
 1974SOL    HW116601   5.286   1.441   3.682
 1974SOL    HW216602   5.237   1.581   3.614
 1975SOL     OW16603   3.535   6.610   3.438
 1975SOL    HW116604   3.599   6.685   3.422
 1975SOL    HW216605   3.443   6.640   3.416
 1976SOL     OW16606   0.695   3.478   3.354
 1976SOL    HW116607   0.668   3.560   3.404
 1976SOL    HW216608   0.794   3.478   3.339
 1977SOL     OW16609   5.607   7.676   3.263
 1977SOL    HW116610   5.652   7.763   3.243
 1977SOL    HW216611   5.645   7.604   3.204
 1978SOL     OW16612   7.874   8.653   1.411
 1978SOL    HW116613   7.864   8.588   1.335
 1978SOL    HW216614   7.958   8.706   1.399
 1979SOL     OW16615   9.524   1.607   4.278
 1979SOL    HW116616   9.478   1.519   4.287
 1979SOL    HW216617   9.456   1.680   4.284
 1980SOL     OW16618   3.269   8.613   3.942
 1980SOL    HW116619   3.360   8.640   3.912
 1980SOL    HW216620   3.202   8.639   3.873
 1981SOL     OW16621   1.365   6.416   2.770
 1981SOL    HW116622   1.369   6.483   2.696
 1981SOL    HW216623   1.430   6.442   2.842
 1982SOL     OW16624   8.792   4.829   3.824
 1982SOL    HW116625   8.851   4.903   3.791
 1982SOL    HW216626   8.731   4.799   3.750
 1983SOL     OW16627   4.668   7.976   1.125
 1983SOL    HW116628   4.676   8.053   1.061
 1983SOL    HW216629   4.624   8.007   1.209
 1984SOL     OW16630   2.586   5.226   2.185
 1984SOL    HW116631   2.677   5.259   2.209
 1984SOL    HW216632   2.583   5.204   2.088
 1985SOL     OW16633   8.123   9.296   1.931
 1985SOL    HW116634   8.140   9.328   2.024
 1985SOL    HW216635   8.029   9.262   1.924
 1986SOL     OW16636   9.004   6.578   0.800
 1986SOL    HW116637   9.045   6.648   0.859
 1986SOL    HW216638   9.042   6.489   0.823
 1987SOL     OW16639   8.889   7.212   1.394
 1987SOL    HW116640   8.887   7.175   1.301
 1987SOL    HW216641   8.801   7.193   1.438
 1988SOL     OW16642   6.541   8.935   1.244
 1988SOL    HW116643   6.465   8.876   1.270
 1988SOL    HW216644   6.621   8.879   1.225
 1989SOL     OW16645   4.234   1.775   4.128
 1989SOL    HW116646   4.190   1.784   4.039
 1989SOL    HW216647   4.327   1.740   4.115
 1990SOL     OW16648   0.735   6.653   2.706
 1990SOL    HW116649   0.659   6.705   2.744
 1990SOL    HW216650   0.726   6.557   2.733
 1991SOL     OW16651   4.372   2.363   3.204
 1991SOL    HW116652   4.306   2.290   3.193
 1991SOL    HW216653   4.326   2.452   3.195
 1992SOL     OW16654   9.345   5.963   1.541
 1992SOL    HW116655   9.356   6.061   1.552
 1992SOL    HW216656   9.395   5.915   1.614
 1993SOL     OW16657   1.651   0.413   4.337
 1993SOL    HW116658   1.719   0.480   4.307
 1993SOL    HW216659   1.687   0.321   4.322
 1994SOL     OW16660   3.371   2.748   4.284
 1994SOL    HW116661   3.360   2.650   4.267
 1994SOL    HW216662   3.455   2.764   4.335
 1995SOL     OW16663   6.551   7.468   2.640
 1995SOL    HW116664   6.494   7.547   2.619
 1995SOL    HW216665   6.646   7.488   2.616
 1996SOL     OW16666   9.803   6.625   0.396
 1996SOL    HW116667   9.764   6.535   0.377
 1996SOL    HW216668   9.873   6.617   0.468
 1997SOL     OW16669   6.861   0.721   0.799
 1997SOL    HW116670   6.837   0.714   0.702
 1997SOL    HW216671   6.792   0.674   0.854
 1998SOL     OW16672   2.789   3.831   4.131
 1998SOL    HW116673   2.880   3.835   4.173
 1998SOL    HW216674   2.779   3.905   4.064
 1999SOL     OW16675   3.085   4.367   0.417
 1999SOL    HW116676   3.106   4.465   0.410
 1999SOL    HW216677   3.113   4.321   0.333
 2000SOL     OW16678   9.644   1.803   3.297
 2000SOL    HW116679   9.567   1.751   3.335
 2000SOL    HW216680   9.723   1.793   3.357
 2001SOL     OW16681   2.570   6.295   0.743
 2001SOL    HW116682   2.504   6.367   0.721
 2001SOL    HW216683   2.628   6.278   0.664
 2002SOL     OW16684   8.416   7.438   3.418
 2002SOL    HW116685   8.499   7.486   3.391
 2002SOL    HW216686   8.374   7.395   3.338
 2003SOL     OW16687   1.336   0.299   4.060
 2003SOL    HW116688   1.417   0.357   4.067
 2003SOL    HW216689   1.324   0.248   4.145
 2004SOL     OW16690   8.688   1.435   2.297
 2004SOL    HW116691   8.626   1.415   2.374
 2004SOL    HW216692   8.669   1.526   2.262
 2005SOL     OW16693   1.344   0.579   1.000
 2005SOL    HW116694   1.386   0.646   0.939
 2005SOL    HW216695   1.249   0.604   1.016
 2006SOL     OW16696   2.213   7.909   3.698
 2006SOL    HW116697   2.197   8.001   3.732
 2006SOL    HW216698   2.293   7.910   3.638
 2007SOL     OW16699   2.307   7.549   1.422
 2007SOL    HW116700   2.256   7.636   1.426
 2007SOL    HW216701   2.376   7.555   1.351
 2008SOL     OW16702   8.573   6.766   3.072
 2008SOL    HW116703   8.619   6.677   3.082
 2008SOL    HW216704   8.628   6.837   3.116
 2009SOL     OW16705   4.041   4.031   0.595
 2009SOL    HW116706   4.004   4.116   0.557
 2009SOL    HW216707   3.983   3.999   0.670
 2010SOL     OW16708   0.292   0.368   2.007
 2010SOL    HW116709   0.285   0.271   1.987
 2010SOL    HW216710   0.247   0.387   2.095
 2011SOL     OW16711   2.088   8.717   4.127
 2011SOL    HW116712   2.105   8.686   4.034
 2011SOL    HW216713   2.055   8.640   4.182
 2012SOL     OW16714   4.729   0.751   3.350
 2012SOL    HW116715   4.823   0.781   3.366
 2012SOL    HW216716   4.668   0.830   3.350
 2013SOL     OW16717   8.294   5.046   0.404
 2013SOL    HW116718   8.252   5.125   0.359
 2013SOL    HW216719   8.380   5.075   0.447
 2014SOL     OW16720   2.443   9.828   1.949
 2014SOL    HW116721   2.364   9.859   1.895
 2014SOL    HW216722   2.493   9.907   1.984
 2015SOL     OW16723   8.552   1.009   3.424
 2015SOL    HW116724   8.579   1.086   3.366
 2015SOL    HW216725   8.616   0.934   3.411
 2016SOL     OW16726   1.619   6.965   2.371
 2016SOL    HW116727   1.562   7.042   2.402
 2016SOL    HW216728   1.715   6.993   2.374
 2017SOL     OW16729   9.173   3.531   2.408
 2017SOL    HW116730   9.099   3.590   2.377
 2017SOL    HW216731   9.187   3.543   2.506
 2018SOL     OW16732   0.830   2.506   1.454
 2018SOL    HW116733   0.845   2.604   1.439
 2018SOL    HW216734   0.916   2.463   1.481
 2019SOL     OW16735   7.682   8.948   0.712
 2019SOL    HW116736   7.587   8.919   0.708
 2019SOL    HW216737   7.739   8.872   0.743
 2020SOL     OW16738   9.645   7.380   3.079
 2020SOL    HW116739   9.726   7.381   3.020
 2020SOL    HW216740   9.578   7.445   3.045
 2021SOL     OW16741   1.495   3.602   2.404
 2021SOL    HW116742   1.422   3.603   2.472
 2021SOL    HW216743   1.527   3.696   2.387
 2022SOL     OW16744   9.432   9.180   4.074
 2022SOL    HW116745   9.426   9.278   4.095
 2022SOL    HW216746   9.502   9.138   4.132
 2023SOL     OW16747   3.665   6.808   1.496
 2023SOL    HW116748   3.705   6.814   1.405
 2023SOL    HW216749   3.608   6.889   1.512
 2024SOL     OW16750   4.136   0.091   3.334
 2024SOL    HW116751   4.170   0.182   3.358
 2024SOL    HW216752   4.049   0.100   3.286
 2025SOL     OW16753   5.010   8.484   2.858
 2025SOL    HW116754   5.009   8.460   2.761
 2025SOL    HW216755   4.930   8.539   2.880
 2026SOL     OW16756   1.025   4.694   2.730
 2026SOL    HW116757   0.940   4.676   2.778
 2026SOL    HW216758   1.067   4.779   2.765
 2027SOL     OW16759   0.082   2.199   0.382
 2027SOL    HW116760   9.998   2.161   0.419
 2027SOL    HW216761   0.061   2.278   0.324
 2028SOL     OW16762   2.615   5.679   4.221
 2028SOL    HW116763   2.549   5.627   4.276
 2028SOL    HW216764   2.604   5.654   4.125
 2029SOL     OW16765   5.409   6.884   3.499
 2029SOL    HW116766   5.457   6.966   3.530
 2029SOL    HW216767   5.439   6.860   3.407
 2030SOL     OW16768   7.999   8.314   2.681
 2030SOL    HW116769   8.013   8.377   2.605
 2030SOL    HW216770   8.083   8.262   2.698
 2031SOL     OW16771   3.665   1.497   2.815
 2031SOL    HW116772   3.690   1.409   2.855
 2031SOL    HW216773   3.651   1.564   2.888
 2032SOL     OW16774   0.489   8.872   2.419
 2032SOL    HW116775   0.527   8.811   2.348
 2032SOL    HW216776   0.487   8.966   2.384
 2033SOL     OW16777   9.895   2.502   4.403
 2033SOL    HW116778   9.968   2.530   4.341
 2033SOL    HW216779   9.864   2.581   4.456
 2034SOL     OW16780   6.697   1.109   4.183
 2034SOL    HW116781   6.775   1.158   4.221
 2034SOL    HW216782   6.696   1.120   4.084
 2035SOL     OW16783   9.412   0.913   3.738
 2035SOL    HW116784   9.403   0.873   3.829
 2035SOL    HW216785   9.508   0.934   3.720
 2036SOL     OW16786   2.579   5.633   2.238
 2036SOL    HW116787   2.518   5.554   2.238
 2036SOL    HW216788   2.527   5.715   2.263
 2037SOL     OW16789   2.604   3.561   1.729
 2037SOL    HW116790   2.571   3.635   1.789
 2037SOL    HW216791   2.530   3.529   1.671
 2038SOL     OW16792   2.611   2.089   0.732
 2038SOL    HW116793   2.640   2.143   0.810
 2038SOL    HW216794   2.551   2.015   0.763
 2039SOL     OW16795   0.454   2.904   3.319
 2039SOL    HW116796   0.436   2.952   3.405
 2039SOL    HW216797   0.431   2.807   3.330
 2040SOL     OW16798   8.739   2.429   3.313
 2040SOL    HW116799   8.722   2.463   3.405
 2040SOL    HW216800   8.652   2.421   3.264
 2041SOL     OW16801   0.503   1.019   0.632
 2041SOL    HW116802   0.434   1.055   0.570
 2041SOL    HW216803   0.568   0.963   0.581
 2042SOL     OW16804   2.266   8.054   2.540
 2042SOL    HW116805   2.269   8.103   2.627
 2042SOL    HW216806   2.205   8.102   2.477
 2043SOL     OW16807   4.057   6.441   1.868
 2043SOL    HW116808   4.084   6.535   1.850
 2043SOL    HW216809   4.124   6.378   1.829
 2044SOL     OW16810   2.169   1.466   2.481
 2044SOL    HW116811   2.111   1.433   2.555
 2044SOL    HW216812   2.158   1.564   2.470
 2045SOL     OW16813   3.241   7.596   2.097
 2045SOL    HW116814   3.302   7.670   2.067
 2045SOL    HW216815   3.292   7.510   2.096
 2046SOL     OW16816   9.293   7.402   2.946
 2046SOL    HW116817   9.347   7.467   3.000
 2046SOL    HW216818   9.252   7.449   2.869
 2047SOL     OW16819   9.352   4.873   2.545
 2047SOL    HW116820   9.351   4.827   2.634
 2047SOL    HW216821   9.268   4.850   2.495
 2048SOL     OW16822   1.527   4.255   1.075
 2048SOL    HW116823   1.512   4.314   0.995
 2048SOL    HW216824   1.462   4.179   1.073
 2049SOL     OW16825   1.509   5.853   3.483
 2049SOL    HW116826   1.608   5.865   3.493
 2049SOL    HW216827   1.466   5.942   3.469
 2050SOL     OW16828   0.363   6.162   0.873
 2050SOL    HW116829   0.289   6.229   0.873
 2050SOL    HW216830   0.447   6.205   0.841
 2051SOL     OW16831   1.456   7.877   0.891
 2051SOL    HW116832   1.361   7.904   0.874
 2051SOL    HW216833   1.465   7.846   0.986
 2052SOL     OW16834   0.056   9.920   2.514
 2052SOL    HW116835   0.135   9.859   2.525
 2052SOL    HW216836   0.060   9.965   2.425
 2053SOL     OW16837   9.918   8.262   1.811
 2053SOL    HW116838   9.845   8.281   1.878
 2053SOL    HW216839   0.002   8.237   1.860
 2054SOL     OW16840   1.079   7.983   4.190
 2054SOL    HW116841   1.143   7.909   4.172
 2054SOL    HW216842   0.992   7.945   4.222
 2055SOL     OW16843   2.936   0.971   0.908
 2055SOL    HW116844   2.974   0.878   0.909
 2055SOL    HW216845   2.889   0.989   0.995
 2056SOL     OW16846   3.530   6.986   2.018
 2056SOL    HW116847   3.517   7.037   1.933
 2056SOL    HW216848   3.468   7.023   2.088
 2057SOL     OW16849   0.913   2.854   4.328
 2057SOL    HW116850   0.982   2.903   4.274
 2057SOL    HW216851   0.948   2.839   4.420
 2058SOL     OW16852   7.292   9.480   2.485
 2058SOL    HW116853   7.197   9.510   2.498
 2058SOL    HW216854   7.346   9.557   2.451
 2059SOL     OW16855   4.214   5.162   1.801
 2059SOL    HW116856   4.313   5.171   1.809
 2059SOL    HW216857   4.189   5.065   1.809
 2060SOL     OW16858   3.394   0.466   2.696
 2060SOL    HW116859   3.404   0.544   2.635
 2060SOL    HW216860   3.322   0.406   2.662
 2061SOL     OW16861   3.671   4.426   1.412
 2061SOL    HW116862   3.742   4.421   1.481
 2061SOL    HW216863   3.713   4.437   1.322
 2062SOL     OW16864   5.252   1.593   2.071
 2062SOL    HW116865   5.288   1.658   2.137
 2062SOL    HW216866   5.300   1.506   2.080
 2063SOL     OW16867   9.186   9.739   1.576
 2063SOL    HW116868   9.163   9.783   1.663
 2063SOL    HW216869   9.108   9.745   1.514
 2064SOL     OW16870   7.877   9.552   0.334
 2064SOL    HW116871   7.833   9.610   0.266
 2064SOL    HW216872   7.832   9.564   0.422
 2065SOL     OW16873   1.694   6.100   3.265
 2065SOL    HW116874   1.764   6.029   3.257
 2065SOL    HW216875   1.605   6.062   3.240
 2066SOL     OW16876   1.552   8.022   3.993
 2066SOL    HW116877   1.515   7.994   4.082
 2066SOL    HW216878   1.558   7.943   3.933
 2067SOL     OW16879   7.458   9.887   2.683
 2067SOL    HW116880   7.533   9.828   2.652
 2067SOL    HW216881   7.468   9.978   2.641
 2068SOL     OW16882   1.039   2.796   2.486
 2068SOL    HW116883   1.065   2.873   2.428
 2068SOL    HW216884   1.097   2.794   2.567
 2069SOL     OW16885   2.874   0.271   0.047
 2069SOL    HW116886   2.956   0.308   0.091
 2069SOL    HW216887   2.863   0.174   0.072
 2070SOL     OW16888   1.375   6.164   2.911
 2070SOL    HW116889   1.360   6.197   3.004
 2070SOL    HW216890   1.369   6.241   2.847
 2071SOL     OW16891   2.792   3.392   0.072
 2071SOL    HW116892   2.835   3.304   0.089
 2071SOL    HW216893   2.844   3.442   0.003
 2072SOL     OW16894   7.919   8.289   2.301
 2072SOL    HW116895   8.005   8.326   2.265
 2072SOL    HW216896   7.939   8.212   2.362
 2073SOL     OW16897   2.499   4.970   0.747
 2073SOL    HW116898   2.471   5.021   0.828
 2073SOL    HW216899   2.599   4.966   0.743
 2074SOL     OW16900   8.492   5.231   0.863
 2074SOL    HW116901   8.525   5.310   0.915
 2074SOL    HW216902   8.471   5.156   0.925
 2075SOL     OW16903   5.760   0.017   3.230
 2075SOL    HW116904   5.846   9.993   3.275
 2075SOL    HW216905   5.683   9.980   3.282
 2076SOL     OW16906   9.131   1.369   4.318
 2076SOL    HW116907   9.080   1.442   4.364
 2076SOL    HW216908   9.093   1.280   4.344
 2077SOL     OW16909   7.801   4.013   4.281
 2077SOL    HW116910   7.726   4.036   4.343
 2077SOL    HW216911   7.877   4.077   4.294
 2078SOL     OW16912   2.531   6.504   2.978
 2078SOL    HW116913   2.516   6.518   3.076
 2078SOL    HW216914   2.477   6.425   2.948
 2079SOL     OW16915   3.701   6.016   2.136
 2079SOL    HW116916   3.790   6.009   2.181
 2079SOL    HW216917   3.660   5.925   2.129
 2080SOL     OW16918   0.309   3.244   4.022
 2080SOL    HW116919   0.281   3.176   3.954
 2080SOL    HW216920   0.363   3.315   3.977
 2081SOL     OW16921   2.676   1.072   3.997
 2081SOL    HW116922   2.716   1.154   4.038
 2081SOL    HW216923   2.586   1.054   4.037
 2082SOL     OW16924   1.076   2.404   1.521
 2082SOL    HW116925   1.141   2.424   1.448
 2082SOL    HW216926   1.109   2.443   1.607
 2083SOL     OW16927   8.915   2.893   2.782
 2083SOL    HW116928   8.964   2.949   2.848
 2083SOL    HW216929   8.846   2.949   2.735
 2084SOL     OW16930   7.500   9.401   3.963
 2084SOL    HW116931   7.431   9.391   4.035
 2084SOL    HW216932   7.546   9.314   3.949
 2085SOL     OW16933   0.526   6.826   1.843
 2085SOL    HW116934   0.482   6.737   1.852
 2085SOL    HW216935   0.460   6.892   1.809
 2086SOL     OW16936   2.829   9.715   0.707
 2086SOL    HW116937   2.840   9.617   0.724
 2086SOL    HW216938   2.772   9.729   0.626
 2087SOL     OW16939   4.153   3.635   0.289
 2087SOL    HW116940   4.131   3.730   0.312
 2087SOL    HW216941   4.098   3.606   0.211
 2088SOL     OW16942   0.427   7.426   3.207
 2088SOL    HW116943   0.340   7.458   3.246
 2088SOL    HW216944   0.483   7.386   3.279
 2089SOL     OW16945   0.674   8.313   3.911
 2089SOL    HW116946   0.603   8.294   3.843
 2089SOL    HW216947   0.713   8.403   3.894
 2090SOL     OW16948   8.566   0.907   4.294
 2090SOL    HW116949   8.621   0.963   4.356
 2090SOL    HW216950   8.617   0.887   4.211
 2091SOL     OW16951   9.098   7.566   3.711
 2091SOL    HW116952   9.044   7.509   3.649
 2091SOL    HW216953   9.189   7.526   3.722
 2092SOL     OW16954   7.606   7.006   2.124
 2092SOL    HW116955   7.590   7.103   2.106
 2092SOL    HW216956   7.669   6.997   2.202
 2093SOL     OW16957   0.655   8.223   3.176
 2093SOL    HW116958   0.567   8.243   3.220
 2093SOL    HW216959   0.658   8.127   3.149
 2094SOL     OW16960   8.574   4.027   3.994
 2094SOL    HW116961   8.652   4.000   4.051
 2094SOL    HW216962   8.514   3.949   3.981
 2095SOL     OW16963   2.588   5.256   1.111
 2095SOL    HW116964   2.587   5.223   1.206
 2095SOL    HW216965   2.525   5.201   1.056
 2096SOL     OW16966   4.780   3.728   0.200
 2096SOL    HW116967   4.780   3.632   0.169
 2096SOL    HW216968   4.692   3.770   0.176
 2097SOL     OW16969   2.463   1.530   0.937
 2097SOL    HW116970   2.407   1.458   0.897
 2097SOL    HW216971   2.516   1.574   0.866
 2098SOL     OW16972   0.570   3.985   2.627
 2098SOL    HW116973   0.618   3.936   2.700
 2098SOL    HW216974   0.475   3.955   2.624
 2099SOL     OW16975   0.481   2.105   2.531
 2099SOL    HW116976   0.523   2.018   2.504
 2099SOL    HW216977   0.531   2.181   2.489
 2100SOL     OW16978   5.017   2.898   2.918
 2100SOL    HW116979   5.016   2.997   2.928
 2100SOL    HW216980   4.934   2.868   2.872
 2101SOL     OW16981   8.848   1.451   3.962
 2101SOL    HW116982   8.867   1.425   3.867
 2101SOL    HW216983   8.796   1.379   4.007
 2102SOL     OW16984   3.414   6.365   2.350
 2102SOL    HW116985   3.491   6.304   2.335
 2102SOL    HW216986   3.397   6.419   2.268
 2103SOL     OW16987   1.169   3.317   3.872
 2103SOL    HW116988   1.112   3.301   3.792
 2103SOL    HW216989   1.164   3.413   3.899
 2104SOL     OW16990   8.658   9.142   0.780
 2104SOL    HW116991   8.637   9.095   0.866
 2104SOL    HW216992   8.725   9.088   0.728
 2105SOL     OW16993   4.883   2.541   1.961
 2105SOL    HW116994   4.864   2.449   1.927
 2105SOL    HW216995   4.814   2.566   2.030
 2106SOL     OW16996   4.816   2.166   1.250
 2106SOL    HW116997   4.865   2.235   1.197
 2106SOL    HW216998   4.721   2.196   1.264
 2107SOL     OW16999   8.927   6.955   4.269
 2107SOL    HW117000   9.001   6.890   4.288
 2107SOL    HW217001   8.842   6.905   4.255
 2108SOL     OW17002   2.794   8.589   3.930
 2108SOL    HW117003   2.852   8.662   3.966
 2108SOL    HW217004   2.708   8.587   3.981
 2109SOL     OW17005   8.483   6.183   1.299
 2109SOL    HW117006   8.458   6.135   1.383
 2109SOL    HW217007   8.571   6.230   1.313
 2110SOL     OW17008   7.335   1.788   3.706
 2110SOL    HW117009   7.362   1.852   3.635
 2110SOL    HW217010   7.315   1.699   3.665
 2111SOL     OW17011   2.958   7.420   2.653
 2111SOL    HW117012   2.888   7.349   2.657
 2111SOL    HW217013   3.043   7.382   2.619
 2112SOL     OW17014   9.285   4.926   0.142
 2112SOL    HW117015   9.313   4.832   0.163
 2112SOL    HW217016   9.204   4.925   0.083
 2113SOL     OW17017   2.239   4.132   2.745
 2113SOL    HW117018   2.318   4.188   2.721
 2113SOL    HW217019   2.163   4.154   2.683
 2114SOL     OW17020   1.846   1.858   1.362
 2114SOL    HW117021   1.901   1.872   1.444
 2114SOL    HW217022   1.858   1.936   1.300
 2115SOL     OW17023   2.462   8.314   0.339
 2115SOL    HW117024   2.532   8.250   0.309
 2115SOL    HW217025   2.484   8.406   0.306
 2116SOL     OW17026   2.134   9.788   2.928
 2116SOL    HW117027   2.208   9.769   2.993
 2116SOL    HW217028   2.130   9.715   2.859
 2117SOL     OW17029   0.564   5.442   2.497
 2117SOL    HW117030   0.480   5.491   2.471
 2117SOL    HW217031   0.635   5.509   2.521
 2118SOL     OW17032   4.154   1.032   3.164
 2118SOL    HW117033   4.221   1.007   3.235
 2118SOL    HW217034   4.076   0.971   3.169
 2119SOL     OW17035   1.363   6.850   3.271
 2119SOL    HW117036   1.274   6.871   3.230
 2119SOL    HW217037   1.350   6.822   3.366
 2120SOL     OW17038   2.046   4.213   1.511
 2120SOL    HW117039   2.026   4.235   1.606
 2120SOL    HW217040   1.990   4.135   1.482
 2121SOL     OW17041   2.423   5.476   0.593
 2121SOL    HW117042   2.402   5.491   0.690
 2121SOL    HW217043   2.465   5.386   0.582
 2122SOL     OW17044   7.497   9.927   3.911
 2122SOL    HW117045   7.595   9.920   3.930
 2122SOL    HW217046   7.446   9.916   3.996
 2123SOL     OW17047   2.754   7.892   1.299
 2123SOL    HW117048   2.758   7.886   1.399
 2123SOL    HW217049   2.815   7.965   1.268
 2124SOL     OW17050   9.078   4.614   2.783
 2124SOL    HW117051   9.004   4.676   2.809
 2124SOL    HW217052   9.063   4.524   2.825
 2125SOL     OW17053   1.633   0.809   4.175
 2125SOL    HW117054   1.594   0.878   4.115
 2125SOL    HW217055   1.560   0.747   4.206
 2126SOL     OW17056   9.796   0.211   3.498
 2126SOL    HW117057   9.858   0.172   3.566
 2126SOL    HW217058   9.847   0.274   3.439
 2127SOL     OW17059   1.256   3.499   1.716
 2127SOL    HW117060   1.279   3.573   1.779
 2127SOL    HW217061   1.210   3.536   1.636
 2128SOL     OW17062   2.028   7.875   2.425
 2128SOL    HW117063   2.058   7.811   2.354
 2128SOL    HW217064   2.073   7.852   2.511
 2129SOL     OW17065   1.825   1.298   2.886
 2129SOL    HW117066   1.915   1.298   2.844
 2129SOL    HW217067   1.810   1.212   2.935
 2130SOL     OW17068   1.093   4.214   4.163
 2130SOL    HW117069   0.997   4.191   4.152
 2130SOL    HW217070   1.144   4.134   4.195
 2131SOL     OW17071   2.762   9.231   2.985
 2131SOL    HW117072   2.678   9.210   2.936
 2131SOL    HW217073   2.752   9.320   3.031
 2132SOL     OW17074   4.835   3.875   1.529
 2132SOL    HW117075   4.926   3.870   1.488
 2132SOL    HW217076   4.815   3.969   1.555
 2133SOL     OW17077   2.393   3.809   1.427
 2133SOL    HW117078   2.323   3.799   1.497
 2133SOL    HW217079   2.414   3.719   1.388
 2134SOL     OW17080   2.526   2.198   3.463
 2134SOL    HW117081   2.563   2.254   3.537
 2134SOL    HW217082   2.585   2.119   3.448
 2135SOL     OW17083   0.490   8.367   0.683
 2135SOL    HW117084   0.418   8.297   0.682
 2135SOL    HW217085   0.456   8.449   0.728
 2136SOL     OW17086   8.301   8.467   1.326
 2136SOL    HW117087   8.270   8.504   1.414
 2136SOL    HW217088   8.224   8.463   1.263
 2137SOL     OW17089   8.941   4.275   3.909
 2137SOL    HW117090   8.883   4.274   3.827
 2137SOL    HW217091   8.997   4.192   3.911
 2138SOL     OW17092   1.657   5.123   1.674
 2138SOL    HW117093   1.682   5.028   1.690
 2138SOL    HW217094   1.558   5.131   1.662
 2139SOL     OW17095   2.442   9.884   0.658
 2139SOL    HW117096   2.500   9.936   0.721
 2139SOL    HW217097   2.449   9.787   0.680
 2140SOL     OW17098   6.763   9.692   3.876
 2140SOL    HW117099   6.863   9.700   3.873
 2140SOL    HW217100   6.734   9.614   3.820
 2141SOL     OW17101   6.821   9.103   2.400
 2141SOL    HW117102   6.758   9.092   2.323
 2141SOL    HW217103   6.799   9.035   2.470
 2142SOL     OW17104   3.340   8.912   1.226
 2142SOL    HW117105   3.322   8.890   1.130
 2142SOL    HW217106   3.288   8.992   1.252
 2143SOL     OW17107   9.061   0.536   1.153
 2143SOL    HW117108   9.088   0.596   1.077
 2143SOL    HW217109   9.065   0.588   1.239
 2144SOL     OW17110   4.157   5.511   1.462
 2144SOL    HW117111   4.136   5.419   1.495
 2144SOL    HW217112   4.196   5.566   1.536
 2145SOL     OW17113   8.365   6.189   1.844
 2145SOL    HW117114   8.333   6.124   1.913
 2145SOL    HW217115   8.303   6.188   1.766
 2146SOL     OW17116   8.793   5.432   3.662
 2146SOL    HW117117   8.709   5.398   3.619
 2146SOL    HW217118   8.813   5.377   3.743
 2147SOL     OW17119   8.531   2.720   1.284
 2147SOL    HW117120   8.551   2.734   1.381
 2147SOL    HW217121   8.484   2.800   1.248
 2148SOL     OW17122   2.701   2.405   2.272
 2148SOL    HW117123   2.725   2.323   2.220
 2148SOL    HW217124   2.689   2.382   2.368
 2149SOL     OW17125   7.952   9.069   2.618
 2149SOL    HW117126   7.980   9.144   2.558
 2149SOL    HW217127   7.858   9.041   2.595
 2150SOL     OW17128   4.062   6.404   2.853
 2150SOL    HW117129   4.109   6.316   2.853
 2150SOL    HW217130   3.965   6.391   2.873
 2151SOL     OW17131   3.374   6.713   0.419
 2151SOL    HW117132   3.291   6.658   0.413
 2151SOL    HW217133   3.356   6.805   0.384
 2152SOL     OW17134   7.108   9.810   0.550
 2152SOL    HW117135   7.196   9.786   0.509
 2152SOL    HW217136   7.051   9.728   0.556
 2153SOL     OW17137   2.106   6.582   2.201
 2153SOL    HW117138   2.080   6.678   2.203
 2153SOL    HW217139   2.075   6.538   2.286
 2154SOL     OW17140   4.660   9.044   1.974
 2154SOL    HW117141   4.624   9.110   1.908
 2154SOL    HW217142   4.656   8.952   1.935
 2155SOL     OW17143   2.643   2.440   4.291
 2155SOL    HW117144   2.682   2.524   4.328
 2155SOL    HW217145   2.557   2.420   4.338
 2156SOL     OW17146   4.123   9.834   1.849
 2156SOL    HW117147   4.139   9.927   1.882
 2156SOL    HW217148   4.067   9.838   1.766
 2157SOL     OW17149   1.788   9.785   1.397
 2157SOL    HW117150   1.777   9.823   1.305
 2157SOL    HW217151   1.723   9.828   1.459
 2158SOL     OW17152   6.652   0.853   2.858
 2158SOL    HW117153   6.565   0.823   2.894
 2158SOL    HW217154   6.645   0.949   2.829
 2159SOL     OW17155   0.238   2.086   2.394
 2159SOL    HW117156   0.322   2.099   2.447
 2159SOL    HW217157   0.162   2.067   2.456
 2160SOL     OW17158   9.567   0.031   2.218
 2160SOL    HW117159   9.638   0.098   2.196
 2160SOL    HW217160   9.537   0.044   2.312
 2161SOL     OW17161   9.394   5.077   3.155
 2161SOL    HW117162   9.428   5.166   3.186
 2161SOL    HW217163   9.400   5.011   3.230
 2162SOL     OW17164   1.672   8.337   0.688
 2162SOL    HW117165   1.759   8.381   0.710
 2162SOL    HW217166   1.648   8.273   0.761
 2163SOL     OW17167   9.800   1.222   1.541
 2163SOL    HW117168   9.854   1.224   1.457
 2163SOL    HW217169   9.723   1.160   1.531
 2164SOL     OW17170   1.522   2.511   1.444
 2164SOL    HW117171   1.602   2.553   1.402
 2164SOL    HW217172   1.547   2.423   1.484
 2165SOL     OW17173   8.935   1.955   0.976
 2165SOL    HW117174   8.837   1.974   0.964
 2165SOL    HW217175   8.967   1.897   0.901
 2166SOL     OW17176   7.729   9.593   1.363
 2166SOL    HW117177   7.798   9.666   1.358
 2166SOL    HW217178   7.765   9.510   1.322
 2167SOL     OW17179   7.502   1.289   2.235
 2167SOL    HW117180   7.561   1.353   2.286
 2167SOL    HW217181   7.410   1.289   2.274
 2168SOL     OW17182   5.707   9.183   4.187
 2168SOL    HW117183   5.730   9.127   4.266
 2168SOL    HW217184   5.717   9.280   4.209
 2169SOL     OW17185   9.900   7.110   2.910
 2169SOL    HW117186   9.852   7.038   2.860
 2169SOL    HW217187   9.955   7.069   2.983
 2170SOL     OW17188   4.537   2.543   1.160
 2170SOL    HW117189   4.485   2.621   1.193
 2170SOL    HW217190   4.501   2.514   1.071
 2171SOL     OW17191   9.338   2.069   1.670
 2171SOL    HW117192   9.431   2.081   1.705
 2171SOL    HW217193   9.281   2.028   1.742
 2172SOL     OW17194   9.393   5.824   2.492
 2172SOL    HW117195   9.354   5.771   2.417
 2172SOL    HW217196   9.485   5.853   2.467
 2173SOL     OW17197   0.090   5.818   0.320
 2173SOL    HW117198   0.105   5.771   0.407
 2173SOL    HW217199   0.050   5.908   0.337
 2174SOL     OW17200   1.669   3.006   3.965
 2174SOL    HW117201   1.728   3.076   4.006
 2174SOL    HW217202   1.631   3.040   3.879
 2175SOL     OW17203   1.610   0.849   2.315
 2175SOL    HW117204   1.619   0.792   2.234
 2175SOL    HW217205   1.629   0.945   2.291
 2176SOL     OW17206   0.384   2.151   1.448
 2176SOL    HW117207   0.329   2.115   1.524
 2176SOL    HW217208   0.443   2.079   1.413
 2177SOL     OW17209   6.364   8.149   1.479
 2177SOL    HW117210   6.430   8.074   1.470
 2177SOL    HW217211   6.411   8.232   1.508
 2178SOL     OW17212   7.507   0.383   1.358
 2178SOL    HW117213   7.476   0.334   1.440
 2178SOL    HW217214   7.428   0.427   1.314
 2179SOL     OW17215   9.238   2.614   3.653
 2179SOL    HW117216   9.284   2.548   3.593
 2179SOL    HW217217   9.246   2.583   3.748
 2180SOL     OW17218   8.507   9.517   3.615
 2180SOL    HW117219   8.546   9.578   3.545
 2180SOL    HW217220   8.531   9.423   3.594
 2181SOL     OW17221   8.243   3.736   2.170
 2181SOL    HW117222   8.265   3.815   2.227
 2181SOL    HW217223   8.283   3.654   2.209
 2182SOL     OW17224   1.009   1.261   4.343
 2182SOL    HW117225   1.101   1.299   4.335
 2182SOL    HW217226   0.946   1.313   4.285
 2183SOL     OW17227   1.110   3.650   2.917
 2183SOL    HW117228   1.064   3.630   2.830
 2183SOL    HW217229   1.052   3.623   2.993
 2184SOL     OW17230   7.685   9.536   3.045
 2184SOL    HW117231   7.784   9.517   3.045
 2184SOL    HW217232   7.661   9.585   3.129
 2185SOL     OW17233   1.344   4.791   0.054
 2185SOL    HW117234   1.324   4.723   5.617
 2185SOL    HW217235   1.437   4.825   0.042
 2186SOL     OW17236   4.183   8.971   3.210
 2186SOL    HW117237   4.184   8.996   3.307
 2186SOL    HW217238   4.096   8.928   3.187
 2187SOL     OW17239   9.597   3.060   3.303
 2187SOL    HW117240   9.679   3.107   3.336
 2187SOL    HW217241   9.592   2.969   3.345
 2188SOL     OW17242   1.784   4.920   2.660
 2188SOL    HW117243   1.724   4.840   2.650
 2188SOL    HW217244   1.834   4.934   2.575
 2189SOL     OW17245   0.021   6.154   1.791
 2189SOL    HW117246   0.107   6.206   1.795
 2189SOL    HW217247   9.982   6.162   1.699
 2190SOL     OW17248   3.537   5.574   2.516
 2190SOL    HW117249   3.557   5.511   2.590
 2190SOL    HW217250   3.441   5.565   2.489
 2191SOL     OW17251   9.166   2.042   2.113
 2191SOL    HW117252   9.090   2.089   2.159
 2191SOL    HW217253   9.182   1.954   2.156
 2192SOL     OW17254   0.022   2.860   3.966
 2192SOL    HW117255   0.068   2.851   4.055
 2192SOL    HW217256   9.936   2.909   3.978
 2193SOL     OW17257   2.894   1.102   3.542
 2193SOL    HW117258   2.940   1.142   3.621
 2193SOL    HW217259   2.829   1.033   3.574
 2194SOL     OW17260   3.635   9.140   1.461
 2194SOL    HW117261   3.656   9.175   1.552
 2194SOL    HW217262   3.569   9.200   1.417
 2195SOL     OW17263   2.470   7.594   0.544
 2195SOL    HW117264   2.494   7.538   0.464
 2195SOL    HW217265   2.550   7.604   0.603
 2196SOL     OW17266   1.348   0.891   2.103
 2196SOL    HW117267   1.300   0.873   2.189
 2196SOL    HW217268   1.371   0.988   2.097
 2197SOL     OW17269   1.046   6.481   0.801
 2197SOL    HW117270   1.052   6.382   0.792
 2197SOL    HW217271   1.138   6.520   0.809
 2198SOL     OW17272   2.153   2.190   1.384
 2198SOL    HW117273   2.184   2.135   1.462
 2198SOL    HW217274   2.168   2.287   1.405
 2199SOL     OW17275   7.724   1.300   3.980
 2199SOL    HW117276   7.818   1.267   3.990
 2199SOL    HW217277   7.697   1.349   4.063
 2200SOL     OW17278   8.926   0.528   3.061
 2200SOL    HW117279   8.847   0.590   3.058
 2200SOL    HW217280   8.916   0.459   2.989
 2201SOL     OW17281   5.098   1.716   3.641
 2201SOL    HW117282   5.123   1.813   3.643
 2201SOL    HW217283   5.015   1.701   3.695
 2202SOL     OW17284   7.088   8.091   1.667
 2202SOL    HW117285   7.179   8.110   1.631
 2202SOL    HW217286   7.020   8.105   1.595
 2203SOL     OW17287   7.468   1.678   2.039
 2203SOL    HW117288   7.407   1.613   1.995
 2203SOL    HW217289   7.560   1.669   2.000
 2204SOL     OW17290   0.099   4.897   4.366
 2204SOL    HW117291   0.178   4.910   4.306
 2204SOL    HW217292   0.128   4.849   4.449
 2205SOL     OW17293   8.248   6.312   2.406
 2205SOL    HW117294   8.163   6.361   2.428
 2205SOL    HW217295   8.325   6.356   2.453
 2206SOL     OW17296   6.645   9.627   2.380
 2206SOL    HW117297   6.679   9.717   2.353
 2206SOL    HW217298   6.681   9.558   2.318
 2207SOL     OW17299   3.224   8.346   2.166
 2207SOL    HW117300   3.291   8.416   2.192
 2207SOL    HW217301   3.132   8.386   2.167
 2208SOL     OW17302   9.241   7.421   1.509
 2208SOL    HW117303   9.338   7.413   1.486
 2208SOL    HW217304   9.225   7.506   1.558
 2209SOL     OW17305   8.678   5.066   1.598
 2209SOL    HW117306   8.757   5.087   1.655
 2209SOL    HW217307   8.706   5.003   1.525
 2210SOL     OW17308   3.300   1.838   3.882
 2210SOL    HW117309   3.392   1.798   3.882
 2210SOL    HW217310   3.237   1.778   3.931
 2211SOL     OW17311   2.904   1.639   2.057
 2211SOL    HW117312   2.902   1.557   2.115
 2211SOL    HW217313   2.959   1.620   1.975
 2212SOL     OW17314   3.677   4.709   1.230
 2212SOL    HW117315   3.711   4.617   1.210
 2212SOL    HW217316   3.661   4.758   1.144
 2213SOL     OW17317   4.276   3.050   0.219
 2213SOL    HW117318   4.292   3.111   0.142
 2213SOL    HW217319   4.203   3.088   0.277
 2214SOL     OW17320   3.071   6.574   3.573
 2214SOL    HW117321   3.030   6.649   3.521
 2214SOL    HW217322   3.153   6.605   3.619
 2215SOL     OW17323   3.389   3.394   3.653
 2215SOL    HW117324   3.356   3.306   3.686
 2215SOL    HW217325   3.407   3.454   3.731
 2216SOL     OW17326   7.337   8.148   1.550
 2216SOL    HW117327   7.427   8.106   1.567
 2216SOL    HW217328   7.338   8.243   1.582
 2217SOL     OW17329   0.935   9.439   3.772
 2217SOL    HW117330   0.941   9.341   3.793
 2217SOL    HW217331   0.868   9.454   3.700
 2218SOL     OW17332   9.056   5.748   2.896
 2218SOL    HW117333   8.957   5.739   2.878
 2218SOL    HW217334   9.106   5.683   2.839
 2219SOL     OW17335   8.124   1.016   0.969
 2219SOL    HW117336   8.027   1.008   0.948
 2219SOL    HW217337   8.161   1.099   0.928
 2220SOL     OW17338   1.515   9.893   3.292
 2220SOL    HW117339   1.510   9.860   3.198
 2220SOL    HW217340   1.465   9.979   3.299
 2221SOL     OW17341   2.840   1.035   1.165
 2221SOL    HW117342   2.936   1.027   1.190
 2221SOL    HW217343   2.783   1.031   1.248
 2222SOL     OW17344   0.998   3.976   0.586
 2222SOL    HW117345   1.012   4.068   0.548
 2222SOL    HW217346   0.961   3.916   0.516
 2223SOL     OW17347   7.779   1.618   2.155
 2223SOL    HW117348   7.851   1.670   2.202
 2223SOL    HW217349   7.731   1.561   2.221
 2224SOL     OW17350   9.184   9.539   0.917
 2224SOL    HW117351   9.205   9.562   0.823
 2224SOL    HW217352   9.124   9.608   0.956
 2225SOL     OW17353   1.867   5.791   0.693
 2225SOL    HW117354   1.781   5.842   0.695
 2225SOL    HW217355   1.852   5.701   0.651
 2226SOL     OW17356   1.362   3.310   0.423
 2226SOL    HW117357   1.319   3.220   0.428
 2226SOL    HW217358   1.394   3.327   0.330
 2227SOL     OW17359   1.182   3.564   0.982
 2227SOL    HW117360   1.246   3.512   0.925
 2227SOL    HW217361   1.093   3.520   0.981
 2228SOL     OW17362   7.386   9.215   2.516
 2228SOL    HW117363   7.339   9.302   2.505
 2228SOL    HW217364   7.475   9.219   2.471
 2229SOL     OW17365   0.148   8.893   3.039
 2229SOL    HW117366   0.221   8.905   3.106
 2229SOL    HW217367   0.102   8.806   3.055
 2230SOL     OW17368   3.047   7.958   1.023
 2230SOL    HW117369   2.973   7.969   0.957
 2230SOL    HW217370   3.019   7.996   1.111
 2231SOL     OW17371   8.036   8.738   1.995
 2231SOL    HW117372   8.113   8.734   2.059
 2231SOL    HW217373   7.982   8.654   2.003
 2232SOL     OW17374   9.952   0.152   1.684
 2232SOL    HW117375   9.940   0.225   1.752
 2232SOL    HW217376   9.902   0.070   1.714
 2233SOL     OW17377   9.903   0.075   3.981
 2233SOL    HW117378   9.883   0.136   4.058
 2233SOL    HW217379   0.001   0.055   3.980
 2234SOL     OW17380   2.678   0.378   0.829
 2234SOL    HW117381   2.653   0.296   0.777
 2234SOL    HW217382   2.602   0.443   0.828
 2235SOL     OW17383   9.868   6.715   0.711
 2235SOL    HW117384   9.931   6.648   0.673
 2235SOL    HW217385   9.894   6.807   0.682
 2236SOL     OW17386   9.717   8.295   1.999
 2236SOL    HW117387   9.725   8.224   2.069
 2236SOL    HW217388   9.622   8.301   1.969
 2237SOL     OW17389   9.469   3.313   1.022
 2237SOL    HW117390   9.438   3.311   0.927
 2237SOL    HW217391   9.474   3.408   1.053
 2238SOL     OW17392   9.878   1.355   2.560
 2238SOL    HW117393   9.850   1.430   2.500
 2238SOL    HW217394   9.798   1.321   2.610
 2239SOL     OW17395   5.511   0.743   3.436
 2239SOL    HW117396   5.443   0.694   3.489
 2239SOL    HW217397   5.538   0.688   3.357
 2240SOL     OW17398   9.585   3.424   1.739
 2240SOL    HW117399   9.676   3.386   1.720
 2240SOL    HW217400   9.593   3.500   1.803
 2241SOL     OW17401   9.512   4.394   1.138
 2241SOL    HW117402   9.539   4.318   1.197
 2241SOL    HW217403   9.441   4.363   1.075
 2242SOL     OW17404   4.874   9.435   2.856
 2242SOL    HW117405   4.971   9.439   2.832
 2242SOL    HW217406   4.819   9.444   2.774
 2243SOL     OW17407   6.086   7.812   1.759
 2243SOL    HW117408   6.124   7.876   1.692
 2243SOL    HW217409   5.996   7.843   1.788
 2244SOL     OW17410   1.283   8.593   4.007
 2244SOL    HW117411   1.230   8.515   4.039
 2244SOL    HW217412   1.261   8.673   4.063
 2245SOL     OW17413   5.394   2.933   0.746
 2245SOL    HW117414   5.478   2.923   0.799
 2245SOL    HW217415   5.413   2.983   0.661
 2246SOL     OW17416   0.996   0.567   1.976
 2246SOL    HW117417   1.007   0.507   2.055
 2246SOL    HW217418   1.082   0.613   1.956
 2247SOL     OW17419   4.110   9.695   3.560
 2247SOL    HW117420   4.072   9.667   3.647
 2247SOL    HW217421   4.119   9.795   3.557
 2248SOL     OW17422   7.289   9.894   3.281
 2248SOL    HW117423   7.340   9.923   3.362
 2248SOL    HW217424   7.221   9.964   3.258
 2249SOL     OW17425   3.641   0.520   3.830
 2249SOL    HW117426   3.703   0.513   3.908
 2249SOL    HW217427   3.621   0.429   3.795
 2250SOL     OW17428   0.847   1.950   2.527
 2250SOL    HW117429   0.752   1.931   2.501
 2250SOL    HW217430   0.898   1.864   2.533
 2251SOL     OW17431   9.917   3.804   3.525
 2251SOL    HW117432   9.974   3.855   3.590
 2251SOL    HW217433   9.831   3.779   3.568
 2252SOL     OW17434   3.257   3.025   2.443
 2252SOL    HW117435   3.258   3.116   2.483
 2252SOL    HW217436   3.291   2.959   2.511
 2253SOL     OW17437   4.615   7.928   2.398
 2253SOL    HW117438   4.523   7.889   2.410
 2253SOL    HW217439   4.609   8.027   2.399
 2254SOL     OW17440   6.452   1.203   3.287
 2254SOL    HW117441   6.380   1.251   3.337
 2254SOL    HW217442   6.516   1.270   3.249
 2255SOL     OW17443   4.425   7.267   2.870
 2255SOL    HW117444   4.448   7.331   2.944
 2255SOL    HW217445   4.509   7.222   2.839
 2256SOL     OW17446   0.437   4.715   1.114
 2256SOL    HW117447   0.343   4.732   1.142
 2256SOL    HW217448   0.478   4.801   1.082
 2257SOL     OW17449   3.556   8.732   3.585
 2257SOL    HW117450   3.497   8.743   3.505
 2257SOL    HW217451   3.635   8.676   3.560
 2258SOL     OW17452   2.534   8.684   0.489
 2258SOL    HW117453   2.525   8.636   0.402
 2258SOL    HW217454   2.568   8.621   0.558
 2259SOL     OW17455   8.786   3.735   3.559
 2259SOL    HW117456   8.858   3.687   3.508
 2259SOL    HW217457   8.754   3.677   3.634
 2260SOL     OW17458   2.807   7.787   0.213
 2260SOL    HW117459   2.818   7.727   0.293
 2260SOL    HW217460   2.715   7.828   0.215
 2261SOL     OW17461   2.967   6.776   1.214
 2261SOL    HW117462   2.937   6.702   1.275
 2261SOL    HW217463   2.932   6.863   1.247
 2262SOL     OW17464   1.337   3.874   3.470
 2262SOL    HW117465   1.247   3.866   3.428
 2262SOL    HW217466   1.329   3.858   3.569
 2263SOL     OW17467   3.249   6.234   2.925
 2263SOL    HW117468   3.174   6.198   2.870
 2263SOL    HW217469   3.216   6.256   3.016
 2264SOL     OW17470   2.385   5.625   1.976
 2264SOL    HW117471   2.389   5.589   1.882
 2264SOL    HW217472   2.390   5.549   2.040
 2265SOL     OW17473   2.519   9.163   2.874
 2265SOL    HW117474   2.477   9.208   2.795
 2265SOL    HW217475   2.511   9.064   2.864
 2266SOL     OW17476   1.490   9.332   0.112
 2266SOL    HW117477   1.526   9.312   0.021
 2266SOL    HW217478   1.479   9.431   0.123
 2267SOL     OW17479   8.089   8.184   3.130
 2267SOL    HW117480   8.025   8.174   3.206
 2267SOL    HW217481   8.095   8.280   3.103
 2268SOL     OW17482   5.467   8.329   2.678
 2268SOL    HW117483   5.398   8.367   2.617
 2268SOL    HW217484   5.519   8.403   2.721
 2269SOL     OW17485   3.903   0.120   3.190
 2269SOL    HW117486   3.820   0.065   3.178
 2269SOL    HW217487   3.945   0.136   3.101
 2270SOL     OW17488   0.900   9.500   1.685
 2270SOL    HW117489   0.825   9.542   1.735
 2270SOL    HW217490   0.982   9.558   1.693
 2271SOL     OW17491   2.454   7.569   1.652
 2271SOL    HW117492   2.493   7.661   1.653
 2271SOL    HW217493   2.409   7.553   1.564
 2272SOL     OW17494   5.795   0.493   0.555
 2272SOL    HW117495   5.799   0.536   0.645
 2272SOL    HW217496   5.884   0.501   0.510
 2273SOL     OW17497   5.066   8.663   1.597
 2273SOL    HW117498   4.981   8.714   1.584
 2273SOL    HW217499   5.139   8.725   1.626
 2274SOL     OW17500   7.922   3.105   0.453
 2274SOL    HW117501   7.966   3.156   0.379
 2274SOL    HW217502   7.833   3.072   0.422
 2275SOL     OW17503   8.215   5.704   1.496
 2275SOL    HW117504   8.164   5.707   1.582
 2275SOL    HW217505   8.179   5.775   1.434
 2276SOL     OW17506   3.551   4.281   2.713
 2276SOL    HW117507   3.513   4.219   2.643
 2276SOL    HW217508   3.546   4.375   2.680
 2277SOL     OW17509   8.985   2.002   1.473
 2277SOL    HW117510   8.936   1.969   1.392
 2277SOL    HW217511   9.078   1.966   1.472
 2278SOL     OW17512   3.013   4.985   3.068
 2278SOL    HW117513   3.038   4.927   3.145
 2278SOL    HW217514   3.063   4.956   2.987
 2279SOL     OW17515   8.620   6.736   1.909
 2279SOL    HW117516   8.601   6.754   2.006
 2279SOL    HW217517   8.681   6.658   1.901
 2280SOL     OW17518   6.612   0.494   1.442
 2280SOL    HW117519   6.512   0.487   1.438
 2280SOL    HW217520   6.644   0.549   1.366
 2281SOL     OW17521   4.027   0.821   0.850
 2281SOL    HW117522   4.053   0.785   0.760
 2281SOL    HW217523   3.951   0.767   0.887
 2282SOL     OW17524   8.436   3.180   3.695
 2282SOL    HW117525   8.389   3.269   3.702
 2282SOL    HW217526   8.526   3.187   3.737
 2283SOL     OW17527   2.958   7.810   3.260
 2283SOL    HW117528   2.923   7.811   3.354
 2283SOL    HW217529   2.928   7.725   3.215
 2284SOL     OW17530   1.928   6.308   1.452
 2284SOL    HW117531   2.000   6.244   1.428
 2284SOL    HW217532   1.945   6.397   1.409
 2285SOL     OW17533   5.738   9.342   2.405
 2285SOL    HW117534   5.664   9.404   2.431
 2285SOL    HW217535   5.818   9.360   2.461
 2286SOL     OW17536   9.816   1.554   2.383
 2286SOL    HW117537   9.874   1.531   2.305
 2286SOL    HW217538   9.727   1.586   2.351
 2287SOL     OW17539   3.303   4.194   3.321
 2287SOL    HW117540   3.305   4.157   3.414
 2287SOL    HW217541   3.392   4.233   3.299
 2288SOL     OW17542   1.813   4.867   0.764
 2288SOL    HW117543   1.800   4.804   0.688
 2288SOL    HW217544   1.769   4.829   0.846
 2289SOL     OW17545   4.510   1.968   0.053
 2289SOL    HW117546   4.496   1.951   0.150
 2289SOL    HW217547   4.440   2.031   0.019
 2290SOL     OW17548   5.009   4.082   0.075
 2290SOL    HW117549   4.914   4.090   0.107
 2290SOL    HW217550   5.047   4.174   0.062
 2291SOL     OW17551   2.311   0.973   1.229
 2291SOL    HW117552   2.212   0.978   1.222
 2291SOL    HW217553   2.353   1.039   1.166
 2292SOL     OW17554   1.183   9.519   3.137
 2292SOL    HW117555   1.255   9.548   3.073
 2292SOL    HW217556   1.100   9.572   3.121
 2293SOL     OW17557   7.921   2.883   0.620
 2293SOL    HW117558   7.925   2.963   0.559
 2293SOL    HW217559   7.899   2.802   0.566
 2294SOL     OW17560   2.262   2.061   1.607
 2294SOL    HW117561   2.348   2.109   1.589
 2294SOL    HW217562   2.220   2.098   1.690
 2295SOL     OW17563   6.794   0.824   0.102
 2295SOL    HW117564   6.872   0.863   0.052
 2295SOL    HW217565   6.791   0.726   0.086
 2296SOL     OW17566   1.172   4.481   4.168
 2296SOL    HW117567   1.144   4.385   4.177
 2296SOL    HW217568   1.110   4.538   4.223
 2297SOL     OW17569   9.481   7.638   0.671
 2297SOL    HW117570   9.572   7.666   0.701
 2297SOL    HW217571   9.423   7.622   0.751
 2298SOL     OW17572   4.823   7.554   2.229
 2298SOL    HW117573   4.866   7.555   2.139
 2298SOL    HW217574   4.742   7.614   2.228
 2299SOL     OW17575   3.464   2.119   0.935
 2299SOL    HW117576   3.379   2.129   0.885
 2299SOL    HW217577   3.484   2.022   0.949
 2300SOL     OW17578   3.569   3.220   2.557
 2300SOL    HW117579   3.663   3.195   2.582
 2300SOL    HW217580   3.557   3.319   2.571
 2301SOL     OW17581   3.584   7.488   1.820
 2301SOL    HW117582   3.612   7.432   1.898
 2301SOL    HW217583   3.655   7.487   1.750
 2302SOL     OW17584   8.506   5.104   0.572
 2302SOL    HW117585   8.513   5.200   0.599
 2302SOL    HW217586   8.443   5.056   0.632
 2303SOL     OW17587   6.358   0.425   2.319
 2303SOL    HW117588   6.336   0.353   2.384
 2303SOL    HW217589   6.369   0.386   2.228
 2304SOL     OW17590   9.311   6.452   0.682
 2304SOL    HW117591   9.298   6.447   0.583
 2304SOL    HW217592   9.234   6.408   0.728
 2305SOL     OW17593   3.076   3.535   0.633
 2305SOL    HW117594   3.008   3.523   0.560
 2305SOL    HW217595   3.049   3.481   0.712
 2306SOL     OW17596   3.045   8.269   3.124
 2306SOL    HW117597   3.021   8.178   3.092
 2306SOL    HW217598   3.087   8.262   3.215
 2307SOL     OW17599   9.423   1.678   3.397
 2307SOL    HW117600   9.418   1.585   3.362
 2307SOL    HW217601   9.428   1.676   3.497
 2308SOL     OW17602   4.990   0.109   0.749
 2308SOL    HW117603   5.073   0.083   0.799
 2308SOL    HW217604   4.923   0.148   0.812
 2309SOL     OW17605   9.435   5.566   2.891
 2309SOL    HW117606   9.489   5.556   2.975
 2309SOL    HW217607   9.442   5.660   2.858
 2310SOL     OW17608   3.857   2.426   1.692
 2310SOL    HW117609   3.769   2.442   1.648
 2310SOL    HW217610   3.884   2.330   1.681
 2311SOL     OW17611   9.481   4.893   0.455
 2311SOL    HW117612   9.404   4.841   0.491
 2311SOL    HW217613   9.479   4.985   0.494
 2312SOL     OW17614   2.047   1.992   3.118
 2312SOL    HW117615   2.078   2.010   3.212
 2312SOL    HW217616   2.095   1.912   3.082
 2313SOL     OW17617   3.643   2.907   2.624
 2313SOL    HW117618   3.543   2.918   2.629
 2313SOL    HW217619   3.664   2.828   2.565
 2314SOL     OW17620   2.981   7.123   1.539
 2314SOL    HW117621   2.939   7.200   1.586
 2314SOL    HW217622   2.924   7.096   1.462
 2315SOL     OW17623   2.431   9.539   2.449
 2315SOL    HW117624   2.451   9.615   2.511
 2315SOL    HW217625   2.333   9.522   2.447
 2316SOL     OW17626   1.143   1.776   0.961
 2316SOL    HW117627   1.219   1.836   0.937
 2316SOL    HW217628   1.179   1.691   1.000
 2317SOL     OW17629   1.437   6.505   0.582
 2317SOL    HW117630   1.432   6.407   0.601
 2317SOL    HW217631   1.513   6.523   0.520
 2318SOL     OW17632   2.624   1.215   0.100
 2318SOL    HW117633   2.535   1.208   0.144
 2318SOL    HW217634   2.663   1.124   0.088
 2319SOL     OW17635   8.362   8.847   2.753
 2319SOL    HW117636   8.446   8.896   2.731
 2319SOL    HW217637   8.287   8.883   2.696
 2320SOL     OW17638   5.195   1.576   3.008
 2320SOL    HW117639   5.176   1.480   2.987
 2320SOL    HW217640   5.131   1.635   2.958
 2321SOL     OW17641   8.121   5.254   2.953
 2321SOL    HW117642   8.179   5.331   2.980
 2321SOL    HW217643   8.048   5.287   2.893
 2322SOL     OW17644   6.741   9.634   1.611
 2322SOL    HW117645   6.803   9.646   1.534
 2322SOL    HW217646   6.750   9.542   1.649
 2323SOL     OW17647   1.741   2.297   1.352
 2323SOL    HW117648   1.830   2.341   1.352
 2323SOL    HW217649   1.705   2.293   1.445
 2324SOL     OW17650   3.740   7.545   0.749
 2324SOL    HW117651   3.686   7.625   0.722
 2324SOL    HW217652   3.837   7.561   0.727
 2325SOL     OW17653   3.902   8.895   2.545
 2325SOL    HW117654   3.951   8.887   2.632
 2325SOL    HW217655   3.927   8.980   2.500
 2326SOL     OW17656   8.505   2.153   0.673
 2326SOL    HW117657   8.500   2.056   0.698
 2326SOL    HW217658   8.452   2.169   0.590
 2327SOL     OW17659   5.344   9.344   2.033
 2327SOL    HW117660   5.342   9.309   2.126
 2327SOL    HW217661   5.340   9.268   1.968
 2328SOL     OW17662   4.050   1.524   3.820
 2328SOL    HW117663   4.122   1.492   3.881
 2328SOL    HW217664   3.971   1.462   3.826
 2329SOL     OW17665   3.202   8.297   0.969
 2329SOL    HW117666   3.247   8.384   0.949
 2329SOL    HW217667   3.271   8.229   0.995
 2330SOL     OW17668   0.756   3.205   2.489
 2330SOL    HW117669   0.797   3.147   2.559
 2330SOL    HW217670   0.715   3.147   2.417
 2331SOL     OW17671   8.987   5.971   2.587
 2331SOL    HW117672   8.888   5.989   2.592
 2331SOL    HW217673   9.002   5.874   2.571
 2332SOL     OW17674   9.995   8.045   1.372
 2332SOL    HW117675   9.989   8.131   1.424
 2332SOL    HW217676   0.052   7.980   1.423
 2333SOL     OW17677   8.676   1.130   2.579
 2333SOL    HW117678   8.774   1.112   2.567
 2333SOL    HW217679   8.660   1.164   2.671
 2334SOL     OW17680   8.308   7.298   3.215
 2334SOL    HW117681   8.319   7.201   3.237
 2334SOL    HW217682   8.241   7.308   3.142
 2335SOL     OW17683   1.742   8.834   2.615
 2335SOL    HW117684   1.832   8.816   2.655
 2335SOL    HW217685   1.672   8.787   2.667
 2336SOL     OW17686   2.196   0.874   4.177
 2336SOL    HW117687   2.193   0.939   4.254
 2336SOL    HW217688   2.262   0.906   4.109
 2337SOL     OW17689   3.025   2.282   0.538
 2337SOL    HW117690   3.004   2.379   0.553
 2337SOL    HW217691   3.123   2.271   0.524
 2338SOL     OW17692   3.619   5.782   1.464
 2338SOL    HW117693   3.656   5.875   1.471
 2338SOL    HW217694   3.581   5.769   1.372
 2339SOL     OW17695   8.500   3.509   1.543
 2339SOL    HW117696   8.560   3.589   1.540
 2339SOL    HW217697   8.406   3.536   1.524
 2340SOL     OW17698   2.082   4.372   3.199
 2340SOL    HW117699   1.984   4.363   3.184
 2340SOL    HW217700   2.098   4.419   3.287
 2341SOL     OW17701   8.027   1.994   2.626
 2341SOL    HW117702   8.009   2.029   2.534
 2341SOL    HW217703   7.943   1.955   2.663
 2342SOL     OW17704   9.092   8.647   2.125
 2342SOL    HW117705   9.016   8.690   2.175
 2342SOL    HW217706   9.142   8.718   2.074
 2343SOL     OW17707   1.689   7.267   3.856
 2343SOL    HW117708   1.754   7.191   3.857
 2343SOL    HW217709   1.672   7.298   3.949
 2344SOL     OW17710   2.701   6.226   0.499
 2344SOL    HW117711   2.635   6.150   0.499
 2344SOL    HW217712   2.735   6.240   0.406
 2345SOL     OW17713   0.071   8.588   1.736
 2345SOL    HW117714   0.075   8.521   1.661
 2345SOL    HW217715   0.156   8.640   1.737
 2346SOL     OW17716   4.723   0.691   1.279
 2346SOL    HW117717   4.816   0.684   1.317
 2346SOL    HW217718   4.656   0.683   1.353
 2347SOL     OW17719   6.803   9.373   1.732
 2347SOL    HW117720   6.745   9.344   1.808
 2347SOL    HW217721   6.897   9.385   1.763
 2348SOL     OW17722   1.776   2.468   2.736
 2348SOL    HW117723   1.849   2.519   2.782
 2348SOL    HW217724   1.801   2.451   2.641
 2349SOL     OW17725   2.920   7.121   2.989
 2349SOL    HW117726   2.929   7.028   3.025
 2349SOL    HW217727   2.962   7.126   2.898
 2350SOL     OW17728   7.554   1.590   3.250
 2350SOL    HW117729   7.570   1.640   3.166
 2350SOL    HW217730   7.486   1.518   3.234
 2351SOL     OW17731   5.445   0.883   1.808
 2351SOL    HW117732   5.544   0.890   1.812
 2351SOL    HW217733   5.413   0.815   1.874
 2352SOL     OW17734   2.498   8.641   4.336
 2352SOL    HW117735   2.509   8.544   4.357
 2352SOL    HW217736   2.547   8.696   4.404
 2353SOL     OW17737   4.026   8.885   2.786
 2353SOL    HW117738   3.979   8.942   2.853
 2353SOL    HW217739   4.125   8.896   2.796
 2354SOL     OW17740   8.518   8.545   3.879
 2354SOL    HW117741   8.521   8.464   3.938
 2354SOL    HW217742   8.521   8.516   3.783
 2355SOL     OW17743   2.819   1.621   3.637
 2355SOL    HW117744   2.897   1.558   3.637
 2355SOL    HW217745   2.775   1.619   3.547
 2356SOL     OW17746   1.458   9.604   0.150
 2356SOL    HW117747   1.521   9.678   0.126
 2356SOL    HW217748   1.368   9.642   0.170
 2357SOL     OW17749   9.581   0.048   4.250
 2357SOL    HW117750   9.533   9.976   4.200
 2357SOL    HW217751   9.571   0.135   4.202
 2358SOL     OW17752   4.184   3.076   2.662
 2358SOL    HW117753   4.192   3.165   2.617
 2358SOL    HW217754   4.275   3.034   2.667
 2359SOL     OW17755   7.302   0.902   3.510
 2359SOL    HW117756   7.312   0.996   3.543
 2359SOL    HW217757   7.393   0.863   3.495
 2360SOL     OW17758   6.886   9.849   4.253
 2360SOL    HW117759   6.863   9.881   4.161
 2360SOL    HW217760   6.976   9.884   4.279
 2361SOL     OW17761   4.306   3.708   3.685
 2361SOL    HW117762   4.252   3.630   3.654
 2361SOL    HW217763   4.245   3.780   3.718
 2362SOL     OW17764   0.165   3.638   0.943
 2362SOL    HW117765   0.214   3.647   1.030
 2362SOL    HW217766   0.212   3.691   0.873
 2363SOL     OW17767   2.799   6.749   2.697
 2363SOL    HW117768   2.804   6.833   2.643
 2363SOL    HW217769   2.730   6.760   2.769
 2364SOL     OW17770   0.565   3.599   2.766
 2364SOL    HW117771   0.467   3.609   2.785
 2364SOL    HW217772   0.611   3.687   2.781
 2365SOL     OW17773   9.156   3.852   2.151
 2365SOL    HW117774   9.171   3.789   2.076
 2365SOL    HW217775   9.095   3.811   2.218
 2366SOL     OW17776   0.536   0.053   0.768
 2366SOL    HW117777   0.474   0.105   0.828
 2366SOL    HW217778   0.628   0.056   0.805
 2367SOL     OW17779   6.701   0.675   2.651
 2367SOL    HW117780   6.646   0.704   2.572
 2367SOL    HW217781   6.693   0.743   2.724
 2368SOL     OW17782   0.843   2.033   2.106
 2368SOL    HW117783   0.867   2.025   2.009
 2368SOL    HW217784   0.760   2.087   2.116
 2369SOL     OW17785   3.260   0.579   1.710
 2369SOL    HW117786   3.311   0.520   1.647
 2369SOL    HW217787   3.167   0.593   1.674
 2370SOL     OW17788   1.437   6.833   0.874
 2370SOL    HW117789   1.500   6.834   0.952
 2370SOL    HW217790   1.483   6.870   0.793
 2371SOL     OW17791   1.341   9.521   1.724
 2371SOL    HW117792   1.293   9.445   1.680
 2371SOL    HW217793   1.401   9.565   1.657
 2372SOL     OW17794   9.077   5.523   0.232
 2372SOL    HW117795   9.078   5.494   0.327
 2372SOL    HW217796   8.984   5.546   0.205
 2373SOL     OW17797   7.839   7.492   3.335
 2373SOL    HW117798   7.863   7.398   3.310
 2373SOL    HW217799   7.921   7.540   3.366
 2374SOL     OW17800   9.549   6.424   0.812
 2374SOL    HW117801   9.610   6.392   0.740
 2374SOL    HW217802   9.460   6.446   0.773
 2375SOL     OW17803   1.315   3.776   3.741
 2375SOL    HW117804   1.359   3.692   3.708
 2375SOL    HW217805   1.227   3.754   3.783
 2376SOL     OW17806   7.566   7.719   3.622
 2376SOL    HW117807   7.470   7.731   3.597
 2376SOL    HW217808   7.596   7.627   3.599
 2377SOL     OW17809   8.927   0.649   4.329
 2377SOL    HW117810   8.894   0.683   4.416
 2377SOL    HW217811   8.850   0.618   4.273
 2378SOL     OW17812   2.610   6.921   1.230
 2378SOL    HW117813   2.543   6.896   1.300
 2378SOL    HW217814   2.567   6.918   1.140
 2379SOL     OW17815   1.807   3.293   1.689
 2379SOL    HW117816   1.838   3.272   1.781
 2379SOL    HW217817   1.762   3.382   1.687
 2380SOL     OW17818   1.218   5.835   3.145
 2380SOL    HW117819   1.227   5.853   3.047
 2380SOL    HW217820   1.234   5.738   3.163
 2381SOL     OW17821   4.993   0.870   4.079
 2381SOL    HW117822   4.974   0.776   4.049
 2381SOL    HW217823   5.088   0.876   4.111
 2382SOL     OW17824   3.356   1.519   0.652
 2382SOL    HW117825   3.373   1.433   0.700
 2382SOL    HW217826   3.441   1.553   0.612
 2383SOL     OW17827   2.133   9.510   3.134
 2383SOL    HW117828   2.149   9.464   3.221
 2383SOL    HW217829   2.191   9.591   3.128
 2384SOL     OW17830   2.476   2.331   2.957
 2384SOL    HW117831   2.515   2.381   3.035
 2384SOL    HW217832   2.451   2.239   2.986
 2385SOL     OW17833   5.426   8.773   4.396
 2385SOL    HW117834   5.513   8.732   4.368
 2385SOL    HW217835   5.353   8.740   4.336
 2386SOL     OW17836   0.222   7.551   3.743
 2386SOL    HW117837   0.194   7.458   3.768
 2386SOL    HW217838   0.282   7.588   3.813
 2387SOL     OW17839   3.934   2.433   2.561
 2387SOL    HW117840   3.973   2.375   2.633
 2387SOL    HW217841   3.904   2.375   2.485
 2388SOL     OW17842   1.515   1.735   0.370
 2388SOL    HW117843   1.587   1.694   0.427
 2388SOL    HW217844   1.514   1.690   0.281
 2389SOL     OW17845   0.312   4.553   4.316
 2389SOL    HW117846   0.296   4.454   4.310
 2389SOL    HW217847   0.411   4.570   4.319
 2390SOL     OW17848   2.847   7.004   0.096
 2390SOL    HW117849   2.806   7.019   0.007
 2390SOL    HW217850   2.843   6.907   0.120
 2391SOL     OW17851   3.465   2.489   2.102
 2391SOL    HW117852   3.556   2.449   2.096
 2391SOL    HW217853   3.470   2.575   2.154
 2392SOL     OW17854   3.568   3.501   0.287
 2392SOL    HW117855   3.481   3.451   0.292
 2392SOL    HW217856   3.561   3.572   0.217
 2393SOL     OW17857   0.329   9.145   4.093
 2393SOL    HW117858   0.372   9.058   4.117
 2393SOL    HW217859   0.374   9.219   4.142
 2394SOL     OW17860   8.245   3.581   1.491
 2394SOL    HW117861   8.216   3.670   1.456
 2394SOL    HW217862   8.221   3.510   1.425
 2395SOL     OW17863   0.396   2.405   0.122
 2395SOL    HW117864   0.402   2.414   0.221
 2395SOL    HW217865   0.455   2.330   0.091
 2396SOL     OW17866   4.839   2.126   2.618
 2396SOL    HW117867   4.768   2.122   2.689
 2396SOL    HW217868   4.914   2.183   2.650
 2397SOL     OW17869   0.177   1.971   4.195
 2397SOL    HW117870   0.252   1.922   4.151
 2397SOL    HW217871   0.098   1.909   4.203
 2398SOL     OW17872   2.131   5.275   3.689
 2398SOL    HW117873   2.182   5.241   3.769
 2398SOL    HW217874   2.047   5.320   3.720
 2399SOL     OW17875   0.263   3.890   2.901
 2399SOL    HW117876   0.174   3.902   2.945
 2399SOL    HW217877   0.281   3.793   2.888
 2400SOL     OW17878   7.914   1.339   2.307
 2400SOL    HW117879   7.957   1.317   2.220
 2400SOL    HW217880   7.847   1.268   2.329
 2401SOL     OW17881   8.372   4.938   1.868
 2401SOL    HW117882   8.378   4.840   1.847
 2401SOL    HW217883   8.288   4.955   1.920
 2402SOL     OW17884   0.292   6.575   2.769
 2402SOL    HW117885   0.206   6.609   2.805
 2402SOL    HW217886   0.319   6.492   2.817
 2403SOL     OW17887   9.942   4.360   3.986
 2403SOL    HW117888   0.024   4.405   3.950
 2403SOL    HW217889   9.870   4.361   3.917
 2404SOL     OW17890   5.068   7.863   3.888
 2404SOL    HW117891   4.980   7.870   3.935
 2404SOL    HW217892   5.142   7.875   3.954
 2405SOL     OW17893   4.630   0.897   1.120
 2405SOL    HW117894   4.685   0.915   1.038
 2405SOL    HW217895   4.670   0.822   1.172
 2406SOL     OW17896   5.438   8.994   2.757
 2406SOL    HW117897   5.376   8.922   2.724
 2406SOL    HW217898   5.447   9.064   2.687
 2407SOL     OW17899   1.845   7.877   3.905
 2407SOL    HW117900   1.850   7.912   3.999
 2407SOL    HW217901   1.789   7.939   3.849
 2408SOL     OW17902   5.905   9.383   1.471
 2408SOL    HW117903   5.916   9.459   1.407
 2408SOL    HW217904   5.880   9.300   1.420
 2409SOL     OW17905   7.515   8.105   3.263
 2409SOL    HW117906   7.544   8.016   3.300
 2409SOL    HW217907   7.459   8.153   3.331
 2410SOL     OW17908   4.881   8.523   2.375
 2410SOL    HW117909   4.811   8.565   2.434
 2410SOL    HW217910   4.845   8.438   2.337
 2411SOL     OW17911   4.136   2.100   3.484
 2411SOL    HW117912   4.150   2.193   3.448
 2411SOL    HW217913   4.218   2.045   3.466
 2412SOL     OW17914   9.671   9.332   0.608
 2412SOL    HW117915   9.599   9.289   0.553
 2412SOL    HW217916   9.660   9.432   0.603
 2413SOL     OW17917   6.838   7.416   1.885
 2413SOL    HW117918   6.831   7.513   1.905
 2413SOL    HW217919   6.746   7.376   1.881
 2414SOL     OW17920   2.524   3.497   4.104
 2414SOL    HW117921   2.618   3.519   4.080
 2414SOL    HW217922   2.463   3.569   4.071
 2415SOL     OW17923   2.643   4.655   1.067
 2415SOL    HW117924   2.652   4.558   1.090
 2415SOL    HW217925   2.727   4.703   1.092
 2416SOL     OW17926   4.207   6.647   3.230
 2416SOL    HW117927   4.187   6.736   3.269
 2416SOL    HW217928   4.214   6.579   3.303
 2417SOL     OW17929   7.088   7.634   2.579
 2417SOL    HW117930   7.145   7.561   2.544
 2417SOL    HW217931   7.103   7.644   2.678
 2418SOL     OW17932   4.116   0.512   4.290
 2418SOL    HW117933   4.053   0.559   4.352
 2418SOL    HW217934   4.172   0.580   4.243
 2419SOL     OW17935   7.845   1.084   1.852
 2419SOL    HW117936   7.834   1.074   1.753
 2419SOL    HW217937   7.799   1.168   1.882
 2420SOL     OW17938   1.849   3.486   1.152
 2420SOL    HW117939   1.939   3.528   1.142
 2420SOL    HW217940   1.808   3.473   1.062
 2421SOL     OW17941   0.705   0.393   0.315
 2421SOL    HW117942   0.792   0.346   0.301
 2421SOL    HW217943   0.688   0.455   0.238
 2422SOL     OW17944   5.307   8.654   4.131
 2422SOL    HW117945   5.336   8.742   4.094
 2422SOL    HW217946   5.357   8.580   4.087
 2423SOL     OW17947   4.944   3.017   2.280
 2423SOL    HW117948   4.986   3.022   2.371
 2423SOL    HW217949   4.953   3.105   2.234
 2424SOL     OW17950   1.620   3.119   3.717
 2424SOL    HW117951   1.553   3.186   3.747
 2424SOL    HW217952   1.612   3.105   3.619
 2425SOL     OW17953   4.817   7.818   3.358
 2425SOL    HW117954   4.877   7.867   3.422
 2425SOL    HW217955   4.791   7.730   3.398
 2426SOL     OW17956   1.373   5.050   1.660
 2426SOL    HW117957   1.388   4.966   1.711
 2426SOL    HW217958   1.331   5.118   1.720
 2427SOL     OW17959   0.468   9.442   2.030
 2427SOL    HW117960   0.440   9.348   2.009
 2427SOL    HW217961   0.393   9.504   2.010
 2428SOL     OW17962   7.370   8.463   3.160
 2428SOL    HW117963   7.464   8.431   3.155
 2428SOL    HW217964   7.323   8.418   3.236
 2429SOL     OW17965   9.988   4.736   3.769
 2429SOL    HW117966   0.022   4.689   3.688
 2429SOL    HW217967   9.942   4.820   3.743
 2430SOL     OW17968   6.844   7.043   3.858
 2430SOL    HW117969   6.880   6.998   3.941
 2430SOL    HW217970   6.897   7.013   3.779
 2431SOL     OW17971   6.163   9.659   1.793
 2431SOL    HW117972   6.139   9.568   1.759
 2431SOL    HW217973   6.141   9.666   1.890
 2432SOL     OW17974   2.980   4.976   2.085
 2432SOL    HW117975   2.961   5.072   2.063
 2432SOL    HW217976   3.018   4.930   2.004
 2433SOL     OW17977   0.219   6.868   1.080
 2433SOL    HW117978   0.305   6.827   1.110
 2433SOL    HW217979   0.143   6.806   1.098
 2434SOL     OW17980   2.756   1.972   1.096
 2434SOL    HW117981   2.658   1.959   1.111
 2434SOL    HW217982   2.797   1.887   1.064
 2435SOL     OW17983   1.301   0.653   3.424
 2435SOL    HW117984   1.394   0.617   3.412
 2435SOL    HW217985   1.250   0.642   3.339
 2436SOL     OW17986   5.150   0.530   2.104
 2436SOL    HW117987   5.120   0.506   2.196
 2436SOL    HW217988   5.092   0.484   2.037
 2437SOL     OW17989   3.557   8.957   3.898
 2437SOL    HW117990   3.535   8.860   3.885
 2437SOL    HW217991   3.566   9.001   3.809
 2438SOL     OW17992   2.164   0.380   3.768
 2438SOL    HW117993   2.218   0.464   3.765
 2438SOL    HW217994   2.164   0.344   3.862
 2439SOL     OW17995   9.974   9.411   3.196
 2439SOL    HW117996   0.046   9.386   3.261
 2439SOL    HW217997   9.969   9.511   3.188
 2440SOL     OW17998   0.462   2.636   3.772
 2440SOL    HW117999   0.373   2.591   3.772
 2440SOL    HW218000   0.522   2.590   3.706
 2441SOL     OW18001   9.780   5.773   1.396
 2441SOL    HW118002   9.726   5.689   1.403
 2441SOL    HW218003   9.832   5.773   1.310
 2442SOL     OW18004   1.865   6.243   1.714
 2442SOL    HW118005   1.766   6.229   1.713
 2442SOL    HW218006   1.894   6.282   1.626
 2443SOL     OW18007   2.763   6.233   0.220
 2443SOL    HW118008   2.859   6.234   0.194
 2443SOL    HW218009   2.718   6.315   0.184
 2444SOL     OW18010   2.833   8.050   1.757
 2444SOL    HW118011   2.793   8.076   1.845
 2444SOL    HW218012   2.793   8.106   1.685
 2445SOL     OW18013   4.774   4.531   0.242
 2445SOL    HW118014   4.711   4.571   0.309
 2445SOL    HW218015   4.784   4.594   0.164
 2446SOL     OW18016   1.387   9.126   2.261
 2446SOL    HW118017   1.347   9.195   2.202
 2446SOL    HW218018   1.391   9.160   2.355
 2447SOL     OW18019   8.761   7.724   0.126
 2447SOL    HW118020   8.737   7.754   0.219
 2447SOL    HW218021   8.860   7.729   0.114
 2448SOL     OW18022   3.314   3.837   3.586
 2448SOL    HW118023   3.239   3.830   3.651
 2448SOL    HW218024   3.327   3.932   3.560
 2449SOL     OW18025   3.663   9.218   0.890
 2449SOL    HW118026   3.734   9.285   0.869
 2449SOL    HW218027   3.650   9.157   0.812
 2450SOL     OW18028   3.835   6.717   3.150
 2450SOL    HW118029   3.808   6.625   3.119
 2450SOL    HW218030   3.892   6.760   3.080
 2451SOL     OW18031   4.401   6.029   2.252
 2451SOL    HW118032   4.376   6.076   2.168
 2451SOL    HW218033   4.457   6.088   2.309
 2452SOL     OW18034   3.059   3.838   4.201
 2452SOL    HW118035   3.046   3.931   4.166
 2452SOL    HW218036   3.116   3.786   4.138
 2453SOL     OW18037   5.634   0.227   1.542
 2453SOL    HW118038   5.666   0.133   1.544
 2453SOL    HW218039   5.626   0.257   1.447
 2454SOL     OW18040   2.855   6.761   3.940
 2454SOL    HW118041   2.880   6.677   3.989
 2454SOL    HW218042   2.766   6.749   3.896
 2455SOL     OW18043   3.956   4.033   3.635
 2455SOL    HW118044   3.910   3.993   3.555
 2455SOL    HW218045   3.989   3.960   3.694
 2456SOL     OW18046   2.552   6.860   1.881
 2456SOL    HW118047   2.472   6.873   1.939
 2456SOL    HW218048   2.588   6.950   1.854
 2457SOL     OW18049   3.449   1.565   4.070
 2457SOL    HW118050   3.491   1.639   4.017
 2457SOL    HW218051   3.384   1.515   4.013
 2458SOL     OW18052   4.205   2.586   3.170
 2458SOL    HW118053   4.163   2.669   3.207
 2458SOL    HW218054   4.133   2.521   3.145
 2459SOL     OW18055   8.700   6.336   2.624
 2459SOL    HW118056   8.758   6.388   2.687
 2459SOL    HW218057   8.711   6.238   2.642
 2460SOL     OW18058   2.777   3.476   2.132
 2460SOL    HW118059   2.739   3.560   2.171
 2460SOL    HW218060   2.866   3.456   2.175
 2461SOL     OW18061   4.852   6.964   2.202
 2461SOL    HW118062   4.892   6.956   2.294
 2461SOL    HW218063   4.753   6.962   2.208
 2462SOL     OW18064   2.896   2.987   2.599
 2462SOL    HW118065   2.959   3.054   2.636
 2462SOL    HW218066   2.870   3.012   2.506
 2463SOL     OW18067   6.691   1.083   3.381
 2463SOL    HW118068   6.761   1.144   3.341
 2463SOL    HW218069   6.600   1.114   3.351
 2464SOL     OW18070   4.404   3.564   0.697
 2464SOL    HW118071   4.427   3.610   0.783
 2464SOL    HW218072   4.315   3.597   0.665
 2465SOL     OW18073   8.664   5.794   1.405
 2465SOL    HW118074   8.635   5.835   1.318
 2465SOL    HW218075   8.749   5.743   1.391
 2466SOL     OW18076   6.716   9.346   3.997
 2466SOL    HW118077   6.682   9.400   3.920
 2466SOL    HW218078   6.790   9.286   3.966
 2467SOL     OW18079   1.227   0.681   3.949
 2467SOL    HW118080   1.239   0.776   3.978
 2467SOL    HW218081   1.306   0.652   3.895
 2468SOL     OW18082   1.781   1.419   3.977
 2468SOL    HW118083   1.805   1.323   3.961
 2468SOL    HW218084   1.862   1.476   3.962
 2469SOL     OW18085   0.029   9.670   1.107
 2469SOL    HW118086   0.067   9.578   1.121
 2469SOL    HW218087   9.969   9.669   1.027
 2470SOL     OW18088   1.879   4.063   3.398
 2470SOL    HW118089   1.783   4.081   3.376
 2470SOL    HW218090   1.884   3.998   3.473
 2471SOL     OW18091   7.542   0.273   2.350
 2471SOL    HW118092   7.544   0.373   2.347
 2471SOL    HW218093   7.489   0.238   2.272
 2472SOL     OW18094   7.371   0.923   2.895
 2472SOL    HW118095   7.366   0.862   2.816
 2472SOL    HW218096   7.288   0.915   2.949
 2473SOL     OW18097   1.388   9.713   1.296
 2473SOL    HW118098   1.428   9.682   1.383
 2473SOL    HW218099   1.297   9.674   1.286
 2474SOL     OW18100   2.761   7.143   0.319
 2474SOL    HW118101   2.790   7.238   0.304
 2474SOL    HW218102   2.790   7.087   0.242
 2475SOL     OW18103   9.802   6.583   1.590
 2475SOL    HW118104   9.898   6.584   1.615
 2475SOL    HW218105   9.771   6.676   1.569
 2476SOL     OW18106   0.912   6.417   3.909
 2476SOL    HW118107   0.817   6.388   3.899
 2476SOL    HW218108   0.930   6.443   4.003
 2477SOL     OW18109   0.768   4.095   2.120
 2477SOL    HW118110   0.731   4.053   2.203
 2477SOL    HW218111   0.697   4.149   2.075
 2478SOL     OW18112   9.834   1.656   0.580
 2478SOL    HW118113   9.811   1.609   0.495
 2478SOL    HW218114   9.819   1.595   0.657
 2479SOL     OW18115   0.486   9.112   2.938
 2479SOL    HW118116   0.448   9.200   2.964
 2479SOL    HW218117   0.413   9.053   2.903
 2480SOL     OW18118   0.877   5.666   3.540
 2480SOL    HW118119   0.864   5.673   3.441
 2480SOL    HW218120   0.964   5.620   3.559
 2481SOL     OW18121   3.867   1.587   2.655
 2481SOL    HW118122   3.951   1.536   2.672
 2481SOL    HW218123   3.790   1.542   2.699
 2482SOL     OW18124   7.767   2.979   2.814
 2482SOL    HW118125   7.681   2.937   2.841
 2482SOL    HW218126   7.822   2.998   2.895
 2483SOL     OW18127   0.189   2.034   1.640
 2483SOL    HW118128   0.130   2.045   1.560
 2483SOL    HW218129   0.229   1.943   1.640
 2484SOL     OW18130   5.556   9.623   1.610
 2484SOL    HW118131   5.550   9.675   1.695
 2484SOL    HW218132   5.472   9.635   1.557
 2485SOL     OW18133   6.481   7.574   3.574
 2485SOL    HW118134   6.533   7.491   3.596
 2485SOL    HW218135   6.455   7.620   3.658
 2486SOL     OW18136   6.626   9.855   2.969
 2486SOL    HW118137   6.689   9.929   2.992
 2486SOL    HW218138   6.586   9.817   3.053
 2487SOL     OW18139   1.411   5.626   3.873
 2487SOL    HW118140   1.352   5.656   3.948
 2487SOL    HW218141   1.379   5.666   3.787
 2488SOL     OW18142   4.369   9.061   0.064
 2488SOL    HW118143   4.382   9.010   5.612
 2488SOL    HW218144   4.416   9.149   0.058
 2489SOL     OW18145   0.723   8.823   0.283
 2489SOL    HW118146   0.674   8.903   0.317
 2489SOL    HW218147   0.660   8.763   0.235
 2490SOL     OW18148   0.730   6.832   3.895
 2490SOL    HW118149   0.735   6.899   3.821
 2490SOL    HW218150   0.775   6.747   3.866
 2491SOL     OW18151   0.308   4.032   0.937
 2491SOL    HW118152   0.372   4.103   0.966
 2491SOL    HW218153   0.261   3.995   1.017
 2492SOL     OW18154   3.117   9.032   1.805
 2492SOL    HW118155   3.184   9.022   1.878
 2492SOL    HW218156   3.162   9.070   1.724
 2493SOL     OW18157   8.722   5.887   3.295
 2493SOL    HW118158   8.627   5.863   3.275
 2493SOL    HW218159   8.781   5.806   3.283
 2494SOL     OW18160   9.718   6.326   3.410
 2494SOL    HW118161   9.775   6.294   3.487
 2494SOL    HW218162   9.772   6.323   3.326
 2495SOL     OW18163   5.176   1.309   2.961
 2495SOL    HW118164   5.186   1.267   2.871
 2495SOL    HW218165   5.254   1.285   3.018
 2496SOL     OW18166   0.123   9.899   3.691
 2496SOL    HW118167   0.127   9.856   3.601
 2496SOL    HW218168   0.206   9.952   3.707
 2497SOL     OW18169   6.095   9.413   3.969
 2497SOL    HW118170   5.998   9.396   3.991
 2497SOL    HW218171   6.113   9.385   3.875
 2498SOL     OW18172   9.596   4.866   4.274
 2498SOL    HW118173   9.631   4.928   4.204
 2498SOL    HW218174   9.672   4.820   4.320
 2499SOL     OW18175   4.947   9.975   3.024
 2499SOL    HW118176   4.960   0.009   2.930
 2499SOL    HW218177   4.849   9.978   3.047
 2500SOL     OW18178   3.497   4.545   2.660
 2500SOL    HW118179   3.417   4.547   2.720
 2500SOL    HW218180   3.469   4.557   2.565
 2501SOL     OW18181   4.381   1.851   3.847
 2501SOL    HW118182   4.283   1.861   3.860
 2501SOL    HW218183   4.420   1.939   3.820
 2502SOL     OW18184   6.217   9.430   4.212
 2502SOL    HW118185   6.144   9.444   4.279
 2502SOL    HW218186   6.179   9.433   4.120
 2503SOL     OW18187   0.903   9.522   4.143
 2503SOL    HW118188   0.873   9.584   4.071
 2503SOL    HW218189   0.824   9.494   4.198
 2504SOL     OW18190   2.690   9.019   3.721
 2504SOL    HW118191   2.590   9.014   3.727
 2504SOL    HW218192   2.719   9.114   3.709
 2505SOL     OW18193   5.486   9.724   4.108
 2505SOL    HW118194   5.492   9.800   4.173
 2505SOL    HW218195   5.461   9.641   4.156
 2506SOL     OW18196   3.074   2.697   4.344
 2506SOL    HW118197   3.120   2.637   4.279
 2506SOL    HW218198   3.139   2.765   4.378
 2507SOL     OW18199   5.311   8.042   1.870
 2507SOL    HW118200   5.227   8.041   1.925
 2507SOL    HW218201   5.290   8.077   1.778
 2508SOL     OW18202   1.402   2.275   1.917
 2508SOL    HW118203   1.415   2.176   1.910
 2508SOL    HW218204   1.485   2.321   1.884
 2509SOL     OW18205   2.620   6.879   3.159
 2509SOL    HW118206   2.703   6.863   3.212
 2509SOL    HW218207   2.540   6.849   3.212
 2510SOL     OW18208   9.670   2.072   3.353
 2510SOL    HW118209   9.703   2.125   3.274
 2510SOL    HW218210   9.645   1.981   3.323
 2511SOL     OW18211   2.320   8.829   1.200
 2511SOL    HW118212   2.393   8.764   1.179
 2511SOL    HW218213   2.355   8.901   1.259
 2512SOL     OW18214   1.462   8.606   1.524
 2512SOL    HW118215   1.460   8.539   1.449
 2512SOL    HW218216   1.549   8.597   1.573
 2513SOL     OW18217   2.408   5.880   0.713
 2513SOL    HW118218   2.357   5.796   0.734
 2513SOL    HW218219   2.345   5.949   0.677
 2514SOL     OW18220   8.869   9.774   3.382
 2514SOL    HW118221   8.869   9.824   3.295
 2514SOL    HW218222   8.931   9.820   3.446
 2515SOL     OW18223   0.292   3.791   2.250
 2515SOL    HW118224   0.313   3.740   2.333
 2515SOL    HW218225   0.331   3.742   2.171
 2516SOL     OW18226   8.885   1.618   3.555
 2516SOL    HW118227   8.973   1.608   3.602
 2516SOL    HW218228   8.895   1.679   3.477
 2517SOL     OW18229   3.067   6.677   2.053
 2517SOL    HW118230   2.993   6.706   1.992
 2517SOL    HW218231   3.123   6.608   2.007
 2518SOL     OW18232   1.967   7.188   0.401
 2518SOL    HW118233   2.033   7.225   0.467
 2518SOL    HW218234   1.895   7.255   0.384
 2519SOL     OW18235   9.946   8.840   0.348
 2519SOL    HW118236   9.940   8.740   0.344
 2519SOL    HW218237   9.952   8.870   0.443
 2520SOL     OW18238   5.556   7.503   3.469
 2520SOL    HW118239   5.572   7.572   3.398
 2520SOL    HW218240   5.491   7.435   3.435
 2521SOL     OW18241   2.190   0.666   0.229
 2521SOL    HW118242   2.289   0.655   0.225
 2521SOL    HW218243   2.152   0.608   0.301
 2522SOL     OW18244   2.654   7.107   1.792
 2522SOL    HW118245   2.663   7.078   1.697
 2522SOL    HW218246   2.626   7.203   1.795
 2523SOL     OW18247   5.117   0.832   3.149
 2523SOL    HW118248   5.199   0.888   3.137
 2523SOL    HW218249   5.121   0.753   3.088
 2524SOL     OW18250   0.848   2.809   2.847
 2524SOL    HW118251   0.922   2.747   2.820
 2524SOL    HW218252   0.854   2.827   2.945
 2525SOL     OW18253   3.454   4.844   2.491
 2525SOL    HW118254   3.551   4.821   2.484
 2525SOL    HW218255   3.441   4.942   2.471
 2526SOL     OW18256   2.657   9.530   4.334
 2526SOL    HW118257   2.639   9.516   4.431
 2526SOL    HW218258   2.690   9.623   4.319
 2527SOL     OW18259   1.119   3.260   0.760
 2527SOL    HW118260   1.052   3.289   0.827
 2527SOL    HW218261   1.074   3.245   0.672
 2528SOL     OW18262   4.137   0.878   2.468
 2528SOL    HW118263   4.221   0.832   2.438
 2528SOL    HW218264   4.156   0.929   2.551
 2529SOL     OW18265   7.648   7.123   1.626
 2529SOL    HW118266   7.741   7.117   1.662
 2529SOL    HW218267   7.635   7.211   1.581
 2530SOL     OW18268   0.287   2.422   4.305
 2530SOL    HW118269   0.293   2.396   4.402
 2530SOL    HW218270   0.379   2.443   4.271
 2531SOL     OW18271   7.528   2.865   2.909
 2531SOL    HW118272   7.584   2.814   2.975
 2531SOL    HW218273   7.474   2.934   2.957
 2532SOL     OW18274   3.256   7.502   3.522
 2532SOL    HW118275   3.167   7.475   3.486
 2532SOL    HW218276   3.254   7.598   3.549
 2533SOL     OW18277   1.783   4.836   3.403
 2533SOL    HW118278   1.844   4.914   3.391
 2533SOL    HW218279   1.830   4.764   3.455
 2534SOL     OW18280   3.641   7.670   3.463
 2534SOL    HW118281   3.689   7.733   3.402
 2534SOL    HW218282   3.576   7.615   3.410
 2535SOL     OW18283   8.465   5.019   3.310
 2535SOL    HW118284   8.561   5.015   3.339
 2535SOL    HW218285   8.407   5.045   3.387
 2536SOL     OW18286   0.232   9.174   1.681
 2536SOL    HW118287   0.191   9.259   1.712
 2536SOL    HW218288   0.236   9.173   1.582
 2537SOL     OW18289   4.923   3.823   0.875
 2537SOL    HW118290   4.900   3.891   0.805
 2537SOL    HW218291   4.842   3.805   0.932
 2538SOL     OW18292   5.504   1.120   3.767
 2538SOL    HW118293   5.449   1.169   3.835
 2538SOL    HW218294   5.463   1.132   3.677
 2539SOL     OW18295   2.338   0.650   4.259
 2539SOL    HW118296   2.267   0.720   4.242
 2539SOL    HW218297   2.345   0.590   4.180
 2540SOL     OW18298   3.473   6.445   1.578
 2540SOL    HW118299   3.448   6.456   1.483
 2540SOL    HW218300   3.478   6.347   1.600
 2541SOL     OW18301   0.385   0.126   1.201
 2541SOL    HW118302   0.298   0.177   1.203
 2541SOL    HW218303   0.377   0.045   1.258
 2542SOL     OW18304   3.122   9.180   4.127
 2542SOL    HW118305   3.092   9.170   4.222
 2542SOL    HW218306   3.060   9.131   4.067
 2543SOL     OW18307   5.812   9.763   3.435
 2543SOL    HW118308   5.836   9.669   3.410
 2543SOL    HW218309   5.886   9.825   3.407
 2544SOL     OW18310   3.458   1.042   1.129
 2544SOL    HW118311   3.388   0.987   1.082
 2544SOL    HW218312   3.549   1.009   1.104
 2545SOL     OW18313   2.531   5.994   3.640
 2545SOL    HW118314   2.452   5.961   3.589
 2545SOL    HW218315   2.604   6.017   3.576
 2546SOL     OW18316   5.371   8.897   4.034
 2546SOL    HW118317   5.321   8.957   4.097
 2546SOL    HW218318   5.457   8.940   4.009
 2547SOL     OW18319   1.064   1.708   1.627
 2547SOL    HW118320   1.118   1.635   1.584
 2547SOL    HW218321   0.970   1.705   1.593
 2548SOL     OW18322   9.392   2.431   0.592
 2548SOL    HW118323   9.417   2.528   0.599
 2548SOL    HW218324   9.329   2.418   0.516
 2549SOL     OW18325   8.278   2.852   0.595
 2549SOL    HW118326   8.374   2.875   0.611
 2549SOL    HW218327   8.223   2.881   0.673
 2550SOL     OW18328   2.115   0.036   1.003
 2550SOL    HW118329   2.088   9.954   1.052
 2550SOL    HW218330   2.098   0.024   0.905
 2551SOL     OW18331   9.529   5.385   2.699
 2551SOL    HW118332   9.565   5.298   2.734
 2551SOL    HW218333   9.486   5.435   2.774
 2552SOL     OW18334   7.515   0.549   2.269
 2552SOL    HW118335   7.600   0.565   2.218
 2552SOL    HW218336   7.498   0.627   2.330
 2553SOL     OW18337   0.869   5.228   4.104
 2553SOL    HW118338   0.884   5.217   4.006
 2553SOL    HW218339   0.800   5.299   4.120
 2554SOL     OW18340   4.171   0.828   1.349
 2554SOL    HW118341   4.235   0.849   1.275
 2554SOL    HW218342   4.216   0.770   1.417
 2555SOL     OW18343   5.149   9.120   3.924
 2555SOL    HW118344   5.220   9.080   3.865
 2555SOL    HW218345   5.111   9.202   3.881
 2556SOL     OW18346   1.311   8.522   2.352
 2556SOL    HW118347   1.248   8.593   2.385
 2556SOL    HW218348   1.391   8.519   2.412
 2557SOL     OW18349   0.850   9.730   0.073
 2557SOL    HW118350   0.805   9.675   0.002
 2557SOL    HW218351   0.808   9.710   0.162
 2558SOL     OW18352   5.176   9.059   1.562
 2558SOL    HW118353   5.088   9.078   1.607
 2558SOL    HW218354   5.237   9.137   1.575
 2559SOL     OW18355   7.249   8.824   2.938
 2559SOL    HW118356   7.218   8.879   2.860
 2559SOL    HW218357   7.223   8.869   3.023
 2560SOL     OW18358   4.186   4.171   3.663
 2560SOL    HW118359   4.189   4.257   3.611
 2560SOL    HW218360   4.094   4.131   3.655
 2561SOL     OW18361   3.177   1.898   1.218
 2561SOL    HW118362   3.235   1.959   1.271
 2561SOL    HW218363   3.187   1.804   1.251
 2562SOL     OW18364   1.799   1.554   2.346
 2562SOL    HW118365   1.824   1.607   2.265
 2562SOL    HW218366   1.790   1.615   2.425
 2563SOL     OW18367   8.982   2.592   3.559
 2563SOL    HW118368   8.985   2.582   3.460
 2563SOL    HW218369   9.076   2.598   3.594
 2564SOL     OW18370   6.369   0.866   4.071
 2564SOL    HW118371   6.299   0.815   4.021
 2564SOL    HW218372   6.353   0.860   4.169
 2565SOL     OW18373   1.724   9.767   3.706
 2565SOL    HW118374   1.795   9.698   3.720
 2565SOL    HW218375   1.638   9.734   3.745
 2566SOL     OW18376   8.529   1.887   2.114
 2566SOL    HW118377   8.499   1.850   2.026
 2566SOL    HW218378   8.617   1.933   2.103
 2567SOL     OW18379   3.520   6.181   1.670
 2567SOL    HW118380   3.432   6.144   1.701
 2567SOL    HW218381   3.585   6.179   1.746
 2568SOL     OW18382   2.757   9.102   3.420
 2568SOL    HW118383   2.775   9.161   3.499
 2568SOL    HW218384   2.685   9.036   3.443
 2569SOL     OW18385   3.226   7.845   3.314
 2569SOL    HW118386   3.240   7.800   3.402
 2569SOL    HW218387   3.132   7.831   3.284
 2570SOL     OW18388   2.158   7.091   1.263
 2570SOL    HW118389   2.164   7.151   1.183
 2570SOL    HW218390   2.188   7.142   1.344
 2571SOL     OW18391   2.797   9.942   1.177
 2571SOL    HW118392   2.741   9.916   1.256
 2571SOL    HW218393   2.788   9.872   1.106
 2572SOL     OW18394   1.959   8.202   2.838
 2572SOL    HW118395   1.944   8.187   2.936
 2572SOL    HW218396   1.891   8.151   2.786
 2573SOL     OW18397   3.154   4.886   2.860
 2573SOL    HW118398   3.232   4.842   2.904
 2573SOL    HW218399   3.169   4.888   2.761
 2574SOL     OW18400   9.365   2.831   0.217
 2574SOL    HW118401   9.448   2.775   0.221
 2574SOL    HW218402   9.389   2.927   0.232
 2575SOL     OW18403   0.954   7.302   3.554
 2575SOL    HW118404   0.940   7.261   3.644
 2575SOL    HW218405   1.048   7.284   3.523
 2576SOL     OW18406   2.494   2.939   1.513
 2576SOL    HW118407   2.528   2.885   1.435
 2576SOL    HW218408   2.398   2.917   1.529
 2577SOL     OW18409   0.596   2.423   1.590
 2577SOL    HW118410   0.678   2.455   1.544
 2577SOL    HW218411   0.524   2.406   1.522
 2578SOL     OW18412   4.098   2.575   4.046
 2578SOL    HW118413   4.131   2.562   4.140
 2578SOL    HW218414   4.053   2.491   4.015
 2579SOL     OW18415   5.245   7.294   2.179
 2579SOL    HW118416   5.330   7.242   2.178
 2579SOL    HW218417   5.170   7.238   2.141
 2580SOL     OW18418   4.495   7.471   2.239
 2580SOL    HW118419   4.482   7.464   2.338
 2580SOL    HW218420   4.528   7.562   2.216
 2581SOL     OW18421   2.026   3.403   3.820
 2581SOL    HW118422   1.971   3.443   3.747
 2581SOL    HW218423   1.967   3.349   3.880
 2582SOL     OW18424   2.136   6.849   0.489
 2582SOL    HW118425   2.181   6.936   0.473
 2582SOL    HW218426   2.061   6.838   0.423
 2583SOL     OW18427   0.763   7.956   1.132
 2583SOL    HW118428   0.766   8.043   1.182
 2583SOL    HW218429   0.807   7.885   1.187
 2584SOL     OW18430   3.651   9.496   4.216
 2584SOL    HW118431   3.598   9.576   4.246
 2584SOL    HW218432   3.641   9.485   4.117
 2585SOL     OW18433   1.688   2.735   0.442
 2585SOL    HW118434   1.667   2.709   0.536
 2585SOL    HW218435   1.615   2.794   0.407
 2586SOL     OW18436   1.926   0.639   1.688
 2586SOL    HW118437   1.959   0.729   1.657
 2586SOL    HW218438   2.003   0.575   1.690
 2587SOL     OW18439   1.110   9.285   3.249
 2587SOL    HW118440   1.036   9.317   3.308
 2587SOL    HW218441   1.153   9.363   3.205
 2588SOL     OW18442   5.899   7.524   1.794
 2588SOL    HW118443   5.893   7.427   1.771
 2588SOL    HW218444   5.894   7.579   1.710
 2589SOL     OW18445   0.695   5.737   1.444
 2589SOL    HW118446   0.777   5.684   1.426
 2589SOL    HW218447   0.710   5.796   1.523
 2590SOL     OW18448   2.723   3.607   3.132
 2590SOL    HW118449   2.708   3.617   3.230
 2590SOL    HW218450   2.638   3.579   3.087
 2591SOL     OW18451   8.856   8.450   0.562
 2591SOL    HW118452   8.773   8.446   0.619
 2591SOL    HW218453   8.920   8.516   0.602
 2592SOL     OW18454   0.761   6.263   1.853
 2592SOL    HW118455   0.834   6.225   1.797
 2592SOL    HW218456   0.716   6.338   1.804
 2593SOL     OW18457   1.365   5.748   2.696
 2593SOL    HW118458   1.357   5.649   2.706
 2593SOL    HW218459   1.347   5.774   2.601
 2594SOL     OW18460   6.927   0.451   1.131
 2594SOL    HW118461   7.012   0.430   1.084
 2594SOL    HW218462   6.854   0.392   1.096
 2595SOL     OW18463   2.217   4.671   1.510
 2595SOL    HW118464   2.168   4.756   1.493
 2595SOL    HW218465   2.158   4.593   1.487
 2596SOL     OW18466   9.101   0.705   4.123
 2596SOL    HW118467   9.044   0.687   4.203
 2596SOL    HW218468   9.187   0.654   4.131
 2597SOL     OW18469   2.626   9.114   1.463
 2597SOL    HW118470   2.549   9.101   1.401
 2597SOL    HW218471   2.595   9.101   1.557
 2598SOL     OW18472   2.739   5.609   2.854
 2598SOL    HW118473   2.798   5.575   2.927
 2598SOL    HW218474   2.648   5.569   2.864
 2599SOL     OW18475   3.610   1.642   2.307
 2599SOL    HW118476   3.696   1.595   2.326
 2599SOL    HW218477   3.591   1.707   2.380
 2600SOL     OW18478   0.705   7.382   2.764
 2600SOL    HW118479   0.766   7.456   2.792
 2600SOL    HW218480   0.633   7.369   2.833
 2601SOL     OW18481   2.927   0.937   3.998
 2601SOL    HW118482   2.837   0.979   3.981
 2601SOL    HW218483   2.916   0.859   4.059
 2602SOL     OW18484   8.347   9.682   0.442
 2602SOL    HW118485   8.276   9.620   0.408
 2602SOL    HW218486   8.328   9.707   0.537
 2603SOL     OW18487   8.894   7.787   4.031
 2603SOL    HW118488   8.884   7.720   3.957
 2603SOL    HW218489   8.805   7.827   4.052
 2604SOL     OW18490   2.201   8.559   1.326
 2604SOL    HW118491   2.300   8.567   1.325
 2604SOL    HW218492   2.165   8.591   1.414
 2605SOL     OW18493   8.913   7.955   1.582
 2605SOL    HW118494   8.977   7.944   1.505
 2605SOL    HW218495   8.961   7.995   1.660
 2606SOL     OW18496   4.584   8.100   2.839
 2606SOL    HW118497   4.624   8.008   2.847
 2606SOL    HW218498   4.624   8.160   2.908
 2607SOL     OW18499   2.615   1.986   2.230
 2607SOL    HW118500   2.663   1.899   2.237
 2607SOL    HW218501   2.519   1.970   2.211
 2608SOL     OW18502   0.884   4.196   0.972
 2608SOL    HW118503   0.803   4.220   0.918
 2608SOL    HW218504   0.879   4.242   1.061
 2609SOL     OW18505   7.483   1.413   2.721
 2609SOL    HW118506   7.483   1.314   2.736
 2609SOL    HW218507   7.424   1.435   2.643
 2610SOL     OW18508   9.436   2.900   2.320
 2610SOL    HW118509   9.385   2.836   2.378
 2610SOL    HW218510   9.451   2.985   2.369
 2611SOL     OW18511   2.516   2.127   4.109
 2611SOL    HW118512   2.595   2.068   4.127
 2611SOL    HW218513   2.447   2.112   4.179
 2612SOL     OW18514   0.678   8.228   0.828
 2612SOL    HW118515   0.661   8.131   0.850
 2612SOL    HW218516   0.608   8.261   0.765
 2613SOL     OW18517   3.918   9.684   3.356
 2613SOL    HW118518   3.962   9.703   3.269
 2613SOL    HW218519   3.985   9.691   3.430
 2614SOL     OW18520   8.809   7.384   3.034
 2614SOL    HW118521   8.782   7.370   3.130
 2614SOL    HW218522   8.735   7.430   2.985
 2615SOL     OW18523   8.786   3.007   0.638
 2615SOL    HW118524   8.763   3.048   0.726
 2615SOL    HW218525   8.812   3.078   0.573
 2616SOL     OW18526   8.570   6.905   0.071
 2616SOL    HW118527   8.536   6.999   0.060
 2616SOL    HW218528   8.574   6.860   5.615
 2617SOL     OW18529   2.384   5.354   0.171
 2617SOL    HW118530   2.480   5.346   0.195
 2617SOL    HW218531   2.331   5.379   0.253
 2618SOL     OW18532   4.957   3.381   1.025
 2618SOL    HW118533   4.892   3.393   0.950
 2618SOL    HW218534   5.050   3.377   0.988
 2619SOL     OW18535   4.593   2.874   1.011
 2619SOL    HW118536   4.596   2.863   0.912
 2619SOL    HW218537   4.686   2.891   1.045
 2620SOL     OW18538   6.667   8.951   4.116
 2620SOL    HW118539   6.624   9.040   4.131
 2620SOL    HW218540   6.749   8.944   4.172
 2621SOL     OW18541   5.022   3.081   3.206
 2621SOL    HW118542   5.059   3.154   3.263
 2621SOL    HW218543   5.032   3.105   3.109
 2622SOL     OW18544   5.144   9.180   3.597
 2622SOL    HW118545   5.211   9.120   3.639
 2622SOL    HW218546   5.106   9.242   3.667
 2623SOL     OW18547   1.265   6.574   1.165
 2623SOL    HW118548   1.295   6.517   1.089
 2623SOL    HW218549   1.180   6.620   1.140
 2624SOL     OW18550   9.155   3.304   1.867
 2624SOL    HW118551   9.076   3.357   1.897
 2624SOL    HW218552   9.211   3.279   1.946
 2625SOL     OW18553   3.106   6.076   0.366
 2625SOL    HW118554   3.142   6.106   0.454
 2625SOL    HW218555   3.048   5.996   0.379
 2626SOL     OW18556   1.006   3.689   1.915
 2626SOL    HW118557   1.002   3.749   1.994
 2626SOL    HW218558   1.042   3.600   1.943
 2627SOL     OW18559   7.399   9.473   0.759
 2627SOL    HW118560   7.391   9.571   0.774
 2627SOL    HW218561   7.476   9.438   0.812
 2628SOL     OW18562   1.713   8.028   3.704
 2628SOL    HW118563   1.737   7.958   3.636
 2628SOL    HW218564   1.617   8.053   3.693
 2629SOL     OW18565   2.820   9.519   0.317
 2629SOL    HW118566   2.917   9.497   0.325
 2629SOL    HW218567   2.766   9.437   0.336
 2630SOL     OW18568   2.298   3.840   1.029
 2630SOL    HW118569   2.367   3.908   1.004
 2630SOL    HW218570   2.225   3.841   0.961
 2631SOL     OW18571   2.475   4.717   1.427
 2631SOL    HW118572   2.540   4.647   1.455
 2631SOL    HW218573   2.382   4.689   1.452
 2632SOL     OW18574   1.048   4.995   3.955
 2632SOL    HW118575   1.113   5.054   4.003
 2632SOL    HW218576   1.001   5.047   3.884
 2633SOL     OW18577   4.556   9.961   4.247
 2633SOL    HW118578   4.621   0.021   4.293
 2633SOL    HW218579   4.474   0.012   4.222
 2634SOL     OW18580   7.779   5.817   2.561
 2634SOL    HW118581   7.738   5.731   2.531
 2634SOL    HW218582   7.736   5.893   2.511
 2635SOL     OW18583   7.498   4.181   0.120
 2635SOL    HW118584   7.410   4.137   0.099
 2635SOL    HW218585   7.482   4.270   0.161
 2636SOL     OW18586   3.313   2.363   3.859
 2636SOL    HW118587   3.305   2.360   3.759
 2636SOL    HW218588   3.340   2.273   3.893
 2637SOL     OW18589   6.125   0.887   3.197
 2637SOL    HW118590   6.115   0.789   3.184
 2637SOL    HW218591   6.036   0.928   3.218
 2638SOL     OW18592   1.064   9.558   2.828
 2638SOL    HW118593   1.040   9.466   2.797
 2638SOL    HW218594   0.998   9.588   2.897
 2639SOL     OW18595   0.621   1.567   1.700
 2639SOL    HW118596   0.633   1.642   1.765
 2639SOL    HW218597   0.605   1.482   1.750
 2640SOL     OW18598   3.250   0.327   0.814
 2640SOL    HW118599   3.265   0.425   0.803
 2640SOL    HW218600   3.310   0.276   0.753
 2641SOL     OW18601   4.949   8.440   4.214
 2641SOL    HW118602   4.970   8.498   4.135
 2641SOL    HW218603   4.995   8.476   4.295
 2642SOL     OW18604   3.687   2.411   0.534
 2642SOL    HW118605   3.755   2.479   0.563
 2642SOL    HW218606   3.648   2.366   0.614
 2643SOL     OW18607   7.983   6.875   3.823
 2643SOL    HW118608   8.039   6.934   3.765
 2643SOL    HW218609   7.950   6.798   3.768
 2644SOL     OW18610   9.393   9.994   1.327
 2644SOL    HW118611   9.489   0.019   1.339
 2644SOL    HW218612   9.336   0.057   1.379
 2645SOL     OW18613   9.767   7.764   1.154
 2645SOL    HW118614   9.831   7.746   1.079
 2645SOL    HW218615   9.764   7.863   1.172
 2646SOL     OW18616   1.357   6.115   4.364
 2646SOL    HW118617   1.371   6.036   4.305
 2646SOL    HW218618   1.259   6.139   4.365
 2647SOL     OW18619   2.921   0.049   3.024
 2647SOL    HW118620   2.847   9.991   2.989
 2647SOL    HW218621   3.002   0.038   2.966
 2648SOL     OW18622   4.331   3.974   2.464
 2648SOL    HW118623   4.330   3.935   2.556
 2648SOL    HW218624   4.252   3.941   2.412
 2649SOL     OW18625   8.522   6.372   0.071
 2649SOL    HW118626   8.613   6.405   0.094
 2649SOL    HW218627   8.507   6.383   5.606
 2650SOL     OW18628   6.921   0.644   3.611
 2650SOL    HW118629   7.012   0.635   3.650
 2650SOL    HW218630   6.928   0.679   3.517
 2651SOL     OW18631   2.660   4.310   1.712
 2651SOL    HW118632   2.589   4.243   1.690
 2651SOL    HW218633   2.746   4.263   1.730
 2652SOL     OW18634   3.069   0.136   0.361
 2652SOL    HW118635   3.128   0.187   0.423
 2652SOL    HW218636   2.980   0.120   0.406
 2653SOL     OW18637   2.149   9.610   3.574
 2653SOL    HW118638   2.231   9.597   3.630
 2653SOL    HW218639   2.068   9.607   3.633
 2654SOL     OW18640   3.043   6.137   2.783
 2654SOL    HW118641   2.961   6.192   2.767
 2654SOL    HW218642   3.027   6.043   2.756
 2655SOL     OW18643   0.764   0.630   2.423
 2655SOL    HW118644   0.863   0.623   2.410
 2655SOL    HW218645   0.723   0.673   2.343
 2656SOL     OW18646   3.738   1.151   0.617
 2656SOL    HW118647   3.798   1.118   0.544
 2656SOL    HW218648   3.709   1.074   0.673
 2657SOL     OW18649   1.627   6.985   2.098
 2657SOL    HW118650   1.612   6.973   2.196
 2657SOL    HW218651   1.694   6.918   2.066
 2658SOL     OW18652   8.201   3.442   1.251
 2658SOL    HW118653   8.292   3.454   1.211
 2658SOL    HW218654   8.136   3.502   1.206
 2659SOL     OW18655   0.212   4.846   3.443
 2659SOL    HW118656   0.254   4.826   3.355
 2659SOL    HW218657   0.184   4.942   3.446
 2660SOL     OW18658   9.325   8.021   3.637
 2660SOL    HW118659   9.259   7.947   3.642
 2660SOL    HW218660   9.417   7.983   3.625
 2661SOL     OW18661   8.237   0.981   2.137
 2661SOL    HW118662   8.193   1.004   2.050
 2661SOL    HW218663   8.300   0.904   2.124
 2662SOL     OW18664   1.990   2.738   0.110
 2662SOL    HW118665   1.943   2.669   0.165
 2662SOL    HW218666   1.925   2.809   0.083
 2663SOL     OW18667   4.636   2.907   1.860
 2663SOL    HW118668   4.719   2.852   1.851
 2663SOL    HW218669   4.627   2.966   1.780
 2664SOL     OW18670   7.823   9.554   3.633
 2664SOL    HW118671   7.847   9.647   3.604
 2664SOL    HW218672   7.729   9.553   3.667
 2665SOL     OW18673   0.853   6.569   0.977
 2665SOL    HW118674   0.912   6.537   0.903
 2665SOL    HW218675   0.852   6.502   1.051
 2666SOL     OW18676   3.001   8.968   3.404
 2666SOL    HW118677   2.992   8.881   3.355
 2666SOL    HW218678   2.925   9.027   3.381
 2667SOL     OW18679   2.056   4.097   1.114
 2667SOL    HW118680   2.129   4.087   1.181
 2667SOL    HW218681   2.007   4.011   1.105
 2668SOL     OW18682   0.080   3.759   0.579
 2668SOL    HW118683   0.032   3.846   0.590
 2668SOL    HW218684   0.164   3.774   0.527
 2669SOL     OW18685   2.536   7.566   3.536
 2669SOL    HW118686   2.470   7.501   3.497
 2669SOL    HW218687   2.546   7.644   3.474
 2670SOL     OW18688   9.886   9.373   2.117
 2670SOL    HW118689   9.905   9.401   2.023
 2670SOL    HW218690   9.795   9.404   2.143
 2671SOL     OW18691   5.094   2.543   0.508
 2671SOL    HW118692   5.066   2.568   0.415
 2671SOL    HW218693   5.160   2.610   0.542
 2672SOL     OW18694   8.154   0.106   2.439
 2672SOL    HW118695   8.094   0.134   2.513
 2672SOL    HW218696   8.136   0.163   2.358
 2673SOL     OW18697   2.269   3.085   1.209
 2673SOL    HW118698   2.178   3.096   1.167
 2673SOL    HW218699   2.311   3.001   1.176
 2674SOL     OW18700   1.980   8.749   2.733
 2674SOL    HW118701   1.980   8.650   2.744
 2674SOL    HW218702   1.997   8.793   2.821
 2675SOL     OW18703   2.878   0.724   3.327
 2675SOL    HW118704   2.780   0.725   3.349
 2675SOL    HW218705   2.930   0.697   3.408
 2676SOL     OW18706   5.531   1.122   1.125
 2676SOL    HW118707   5.519   1.218   1.102
 2676SOL    HW218708   5.449   1.088   1.171
 2677SOL     OW18709   5.550   0.773   2.142
 2677SOL    HW118710   5.635   0.820   2.117
 2677SOL    HW218711   5.570   0.695   2.201
 2678SOL     OW18712   1.001   0.191   0.840
 2678SOL    HW118713   0.925   0.129   0.858
 2678SOL    HW218714   0.985   0.278   0.886
 2679SOL     OW18715   7.958   3.531   0.527
 2679SOL    HW118716   7.972   3.451   0.585
 2679SOL    HW218717   7.914   3.603   0.580
 2680SOL     OW18718   1.728   9.366   0.454
 2680SOL    HW118719   1.684   9.360   0.544
 2680SOL    HW218720   1.732   9.275   0.413
 2681SOL     OW18721   8.343   6.388   0.533
 2681SOL    HW118722   8.274   6.328   0.572
 2681SOL    HW218723   8.370   6.457   0.601
 2682SOL     OW18724   9.696   7.303   0.593
 2682SOL    HW118725   9.721   7.344   0.681
 2682SOL    HW218726   9.696   7.203   0.603
 2683SOL     OW18727   0.428   4.293   4.013
 2683SOL    HW118728   0.386   4.214   3.969
 2683SOL    HW218729   0.526   4.295   3.991
 2684SOL     OW18730   8.768   0.348   2.398
 2684SOL    HW118731   8.829   0.332   2.476
 2684SOL    HW218732   8.777   0.272   2.333
 2685SOL     OW18733   1.381   1.896   0.896
 2685SOL    HW118734   1.389   1.989   0.860
 2685SOL    HW218735   1.404   1.896   0.993
 2686SOL     OW18736   8.895   2.698   2.376
 2686SOL    HW118737   8.824   2.754   2.333
 2686SOL    HW218738   8.945   2.648   2.304
 2687SOL     OW18739   2.729   7.243   3.663
 2687SOL    HW118740   2.768   7.319   3.714
 2687SOL    HW218741   2.738   7.261   3.565
 2688SOL     OW18742   8.508   2.134   1.634
 2688SOL    HW118743   8.508   2.222   1.587
 2688SOL    HW218744   8.426   2.127   1.691
 2689SOL     OW18745   4.661   9.490   3.023
 2689SOL    HW118746   4.733   9.475   2.956
 2689SOL    HW218747   4.646   9.406   3.075
 2690SOL     OW18748   9.337   4.744   2.791
 2690SOL    HW118749   9.412   4.691   2.831
 2690SOL    HW218750   9.252   4.691   2.796
 2691SOL     OW18751   7.540   2.485   0.879
 2691SOL    HW118752   7.625   2.517   0.835
 2691SOL    HW218753   7.476   2.455   0.809
 2692SOL     OW18754   7.111   7.675   3.684
 2692SOL    HW118755   7.017   7.698   3.706
 2692SOL    HW218756   7.121   7.576   3.676
 2693SOL     OW18757   7.180   6.910   3.831
 2693SOL    HW118758   7.102   6.892   3.772
 2693SOL    HW218759   7.264   6.908   3.777
 2694SOL     OW18760   2.202   6.300   0.747
 2694SOL    HW118761   2.275   6.369   0.747
 2694SOL    HW218762   2.152   6.304   0.833
 2695SOL     OW18763   9.775   9.588   4.417
 2695SOL    HW118764   9.745   9.595   4.512
 2695SOL    HW218765   9.809   9.495   4.400
 2696SOL     OW18766   7.027   9.376   2.099
 2696SOL    HW118767   7.032   9.380   2.000
 2696SOL    HW218768   7.107   9.421   2.138
 2697SOL     OW18769   8.834   8.120   4.278
 2697SOL    HW118770   8.931   8.096   4.278
 2697SOL    HW218771   8.780   8.039   4.301
 2698SOL     OW18772   2.490   2.438   1.921
 2698SOL    HW118773   2.458   2.484   1.838
 2698SOL    HW218774   2.553   2.364   1.895
 2699SOL     OW18775   5.970   9.099   2.519
 2699SOL    HW118776   5.878   9.082   2.554
 2699SOL    HW218777   6.002   9.018   2.469
 2700SOL     OW18778   9.864   2.760   0.539
 2700SOL    HW118779   9.860   2.662   0.523
 2700SOL    HW218780   9.940   2.799   0.486
 2701SOL     OW18781   2.853   4.777   2.235
 2701SOL    HW118782   2.883   4.688   2.199
 2701SOL    HW218783   2.902   4.850   2.188
 2702SOL     OW18784   4.705   7.800   3.779
 2702SOL    HW118785   4.749   7.839   3.860
 2702SOL    HW218786   4.659   7.873   3.728
 2703SOL     OW18787   0.359   3.387   1.441
 2703SOL    HW118788   0.411   3.422   1.364
 2703SOL    HW218789   0.309   3.304   1.414
 2704SOL     OW18790   6.267   8.740   2.388
 2704SOL    HW118791   6.181   8.790   2.391
 2704SOL    HW218792   6.271   8.684   2.305
 2705SOL     OW18793   0.528   1.789   3.454
 2705SOL    HW118794   0.520   1.695   3.486
 2705SOL    HW218795   0.466   1.804   3.377
 2706SOL     OW18796   5.251   9.317   4.330
 2706SOL    HW118797   5.293   9.268   4.406
 2706SOL    HW218798   5.155   9.336   4.352
 2707SOL     OW18799   1.219   0.716   1.919
 2707SOL    HW118800   1.290   0.671   1.865
 2707SOL    HW218801   1.261   0.781   1.982
 2708SOL     OW18802   7.605   6.375   2.980
 2708SOL    HW118803   7.603   6.455   2.920
 2708SOL    HW218804   7.602   6.292   2.924
 2709SOL     OW18805   0.514   5.806   2.378
 2709SOL    HW118806   0.597   5.849   2.413
 2709SOL    HW218807   0.473   5.863   2.307
 2710SOL     OW18808   1.895   9.449   3.512
 2710SOL    HW118809   1.901   9.522   3.444
 2710SOL    HW218810   1.887   9.489   3.604
 2711SOL     OW18811   5.327   6.593   3.238
 2711SOL    HW118812   5.265   6.598   3.159
 2711SOL    HW218813   5.388   6.673   3.238
 2712SOL     OW18814   1.770   9.560   1.551
 2712SOL    HW118815   1.838   9.548   1.623
 2712SOL    HW218816   1.793   9.641   1.497
 2713SOL     OW18817   1.728   6.600   3.577
 2713SOL    HW118818   1.807   6.538   3.581
 2713SOL    HW218819   1.694   6.604   3.483
 2714SOL     OW18820   0.968   6.480   0.162
 2714SOL    HW118821   1.021   6.397   0.144
 2714SOL    HW218822   0.945   6.525   0.076
 2715SOL     OW18823   3.227   4.999   4.087
 2715SOL    HW118824   3.244   4.959   3.997
 2715SOL    HW218825   3.179   5.087   4.076
 2716SOL     OW18826   1.398   0.455   2.577
 2716SOL    HW118827   1.446   0.440   2.663
 2716SOL    HW218828   1.412   0.549   2.547
 2717SOL     OW18829   2.628   3.113   2.757
 2717SOL    HW118830   2.713   3.156   2.785
 2717SOL    HW218831   2.626   3.104   2.657
 2718SOL     OW18832   9.182   9.302   2.468
 2718SOL    HW118833   9.275   9.278   2.497
 2718SOL    HW218834   9.132   9.218   2.445
 2719SOL     OW18835   2.068   7.258   3.415
 2719SOL    HW118836   1.974   7.267   3.448
 2719SOL    HW218837   2.104   7.169   3.442
 2720SOL     OW18838   9.027   2.283   4.331
 2720SOL    HW118839   9.031   2.230   4.247
 2720SOL    HW218840   9.035   2.380   4.310
 2721SOL     OW18841   1.980   4.944   2.439
 2721SOL    HW118842   2.066   4.977   2.401
 2721SOL    HW218843   1.952   4.861   2.392
 2722SOL     OW18844   5.022   1.014   2.748
 2722SOL    HW118845   4.932   1.056   2.753
 2722SOL    HW218846   5.091   1.084   2.733
 2723SOL     OW18847   1.032   3.942   1.308
 2723SOL    HW118848   1.009   4.037   1.329
 2723SOL    HW218849   1.131   3.930   1.308
 2724SOL     OW18850   9.497   9.126   1.697
 2724SOL    HW118851   9.527   9.032   1.680
 2724SOL    HW218852   9.573   9.189   1.679
 2725SOL     OW18853   0.286   3.917   4.119
 2725SOL    HW118854   0.289   3.982   4.042
 2725SOL    HW218855   0.250   3.829   4.087
 2726SOL     OW18856   9.334   8.677   2.929
 2726SOL    HW118857   9.370   8.733   3.004
 2726SOL    HW218858   9.340   8.728   2.844
 2727SOL     OW18859   1.801   0.149   4.285
 2727SOL    HW118860   1.880   0.157   4.347
 2727SOL    HW218861   1.833   0.127   4.193
 2728SOL     OW18862   9.916   7.325   1.211
 2728SOL    HW118863   9.951   7.265   1.139
 2728SOL    HW218864   9.960   7.303   1.298
 2729SOL     OW18865   4.711   0.847   1.870
 2729SOL    HW118866   4.784   0.779   1.862
 2729SOL    HW218867   4.746   0.928   1.918
 2730SOL     OW18868   9.985   1.381   0.443
 2730SOL    HW118869   9.945   1.349   0.529
 2730SOL    HW218870   9.918   1.436   0.393
 2731SOL     OW18871   9.480   8.117   0.178
 2731SOL    HW118872   9.554   8.065   0.137
 2731SOL    HW218873   9.444   8.068   0.257
 2732SOL     OW18874   2.865   1.732   4.032
 2732SOL    HW118875   2.962   1.709   4.029
 2732SOL    HW218876   2.840   1.784   3.951
 2733SOL     OW18877   2.335   2.826   1.077
 2733SOL    HW118878   2.343   2.730   1.107
 2733SOL    HW218879   2.244   2.841   1.038
 2734SOL     OW18880   5.085   9.787   1.272
 2734SOL    HW118881   5.038   9.704   1.301
 2734SOL    HW218882   5.071   9.859   1.340
 2735SOL     OW18883   2.911   2.779   3.218
 2735SOL    HW118884   2.859   2.806   3.137
 2735SOL    HW218885   2.870   2.698   3.259
 2736SOL     OW18886   2.122   1.904   1.080
 2736SOL    HW118887   2.138   1.820   1.132
 2736SOL    HW218888   2.137   1.887   0.983
 2737SOL     OW18889   3.612   6.050   3.372
 2737SOL    HW118890   3.578   6.115   3.303
 2737SOL    HW218891   3.660   6.100   3.444
 2738SOL     OW18892   9.217   9.015   2.226
 2738SOL    HW118893   9.236   8.967   2.312
 2738SOL    HW218894   9.241   8.956   2.149
 2739SOL     OW18895   0.684   1.630   3.784
 2739SOL    HW118896   0.774   1.646   3.746
 2739SOL    HW218897   0.624   1.591   3.714
 2740SOL     OW18898   4.632   1.565   3.653
 2740SOL    HW118899   4.557   1.568   3.719
 2740SOL    HW218900   4.718   1.587   3.699
 2741SOL     OW18901   6.691   9.041   2.125
 2741SOL    HW118902   6.691   8.948   2.162
 2741SOL    HW218903   6.784   9.069   2.105
 2742SOL     OW18904   1.396   9.241   2.518
 2742SOL    HW118905   1.435   9.327   2.552
 2742SOL    HW218906   1.435   9.164   2.569
 2743SOL     OW18907   2.507   3.389   2.440
 2743SOL    HW118908   2.465   3.431   2.359
 2743SOL    HW218909   2.602   3.418   2.447
 2744SOL     OW18910   9.667   3.751   1.608
 2744SOL    HW118911   9.636   3.661   1.638
 2744SOL    HW218912   9.726   3.742   1.528
 2745SOL     OW18913   8.412   6.463   1.273
 2745SOL    HW118914   8.415   6.364   1.276
 2745SOL    HW218915   8.361   6.498   1.351
 2746SOL     OW18916   8.656   3.736   1.513
 2746SOL    HW118917   8.739   3.724   1.568
 2746SOL    HW218918   8.618   3.827   1.530
 2747SOL     OW18919   4.823   2.162   0.503
 2747SOL    HW118920   4.750   2.147   0.570
 2747SOL    HW218921   4.853   2.074   0.465
 2748SOL     OW18922   3.471   2.655   0.647
 2748SOL    HW118923   3.433   2.597   0.575
 2748SOL    HW218924   3.446   2.750   0.629
 2749SOL     OW18925   0.184   5.285   0.510
 2749SOL    HW118926   0.234   5.371   0.509
 2749SOL    HW218927   0.129   5.279   0.593
 2750SOL     OW18928   2.857   9.447   0.738
 2750SOL    HW118929   2.854   9.398   0.824
 2750SOL    HW218930   2.945   9.431   0.693
 2751SOL     OW18931   6.460   9.399   2.268
 2751SOL    HW118932   6.452   9.347   2.353
 2751SOL    HW218933   6.556   9.414   2.247
 2752SOL     OW18934   6.589   0.449   0.275
 2752SOL    HW118935   6.505   0.447   0.221
 2752SOL    HW218936   6.604   0.360   0.318
 2753SOL     OW18937   9.759   4.359   4.362
 2753SOL    HW118938   9.838   4.409   4.327
 2753SOL    HW218939   9.681   4.420   4.371
 2754SOL     OW18940   3.493   3.057   4.225
 2754SOL    HW118941   3.458   3.142   4.264
 2754SOL    HW218942   3.420   3.011   4.174
 2755SOL     OW18943   6.779   9.962   0.886
 2755SOL    HW118944   6.712   9.989   0.955
 2755SOL    HW218945   6.867   9.943   0.930
 2756SOL     OW18946   7.342   0.181   1.091
 2756SOL    HW118947   7.288   0.252   1.047
 2756SOL    HW218948   7.439   0.205   1.088
 2757SOL     OW18949   9.646   0.363   2.645
 2757SOL    HW118950   9.588   0.290   2.679
 2757SOL    HW218951   9.687   0.412   2.722
 2758SOL     OW18952   8.701   0.274   3.503
 2758SOL    HW118953   8.796   0.274   3.474
 2758SOL    HW218954   8.696   0.251   3.600
 2759SOL     OW18955   2.719   1.207   2.172
 2759SOL    HW118956   2.644   1.273   2.167
 2759SOL    HW218957   2.690   1.120   2.133
 2760SOL     OW18958   1.175   7.429   3.851
 2760SOL    HW118959   1.194   7.349   3.908
 2760SOL    HW218960   1.085   7.467   3.875
 2761SOL     OW18961   3.990   1.828   2.196
 2761SOL    HW118962   4.068   1.782   2.240
 2761SOL    HW218963   3.986   1.800   2.100
 2762SOL     OW18964   8.057   0.713   0.580
 2762SOL    HW118965   8.152   0.721   0.551
 2762SOL    HW218966   8.024   0.620   0.563
 2763SOL     OW18967   3.670   3.990   2.960
 2763SOL    HW118968   3.708   4.073   2.920
 2763SOL    HW218969   3.715   3.910   2.920
 2764SOL     OW18970   3.101   8.232   2.472
 2764SOL    HW118971   3.063   8.174   2.401
 2764SOL    HW218972   3.189   8.195   2.503
 2765SOL     OW18973   3.426   7.715   4.246
 2765SOL    HW118974   3.414   7.627   4.199
 2765SOL    HW218975   3.354   7.778   4.216
 2766SOL     OW18976   9.993   0.594   3.128
 2766SOL    HW118977   0.025   0.688   3.119
 2766SOL    HW218978   9.935   0.571   3.050
 2767SOL     OW18979   1.155   7.598   0.175
 2767SOL    HW118980   1.206   7.577   0.259
 2767SOL    HW218981   1.082   7.664   0.196
 2768SOL     OW18982   6.154   9.808   4.192
 2768SOL    HW118983   6.164   9.751   4.111
 2768SOL    HW218984   6.064   9.792   4.233
 2769SOL     OW18985   8.203   3.914   3.690
 2769SOL    HW118986   8.146   3.925   3.772
 2769SOL    HW218987   8.219   3.817   3.672
 2770SOL     OW18988   1.869   2.010   4.181
 2770SOL    HW118989   1.774   2.035   4.165
 2770SOL    HW218990   1.890   1.927   4.129
 2771SOL     OW18991   0.272   1.592   1.135
 2771SOL    HW118992   0.286   1.618   1.231
 2771SOL    HW218993   0.355   1.610   1.083
 2772SOL     OW18994   8.396   4.558   0.160
 2772SOL    HW118995   8.492   4.543   0.135
 2772SOL    HW218996   8.369   4.493   0.231
 2773SOL     OW18997   1.833   9.137   2.335
 2773SOL    HW118998   1.756   9.144   2.272
 2773SOL    HW218999   1.849   9.041   2.358
 2774SOL     OW19000   9.549   9.975   0.607
 2774SOL    HW119001   9.617   0.007   0.541
 2774SOL    HW219002   9.590   9.909   0.669
 2775SOL     OW19003   6.665   8.026   2.315
 2775SOL    HW119004   6.592   7.971   2.356
 2775SOL    HW219005   6.680   8.108   2.370
 2776SOL     OW19006   7.298   0.516   1.248
 2776SOL    HW119007   7.356   0.582   1.199
 2776SOL    HW219008   7.235   0.565   1.307
 2777SOL     OW19009   2.197   4.259   3.942
 2777SOL    HW119010   2.099   4.276   3.925
 2777SOL    HW219011   2.244   4.346   3.952
 2778SOL     OW19012   2.203   8.387   4.411
 2778SOL    HW119013   2.171   8.293   4.404
 2778SOL    HW219014   2.299   8.391   4.386
 2779SOL     OW19015   0.308   0.701   1.713
 2779SOL    HW119016   0.304   0.776   1.780
 2779SOL    HW219017   0.395   0.652   1.724
 2780SOL     OW19018   4.190   8.708   1.015
 2780SOL    HW119019   4.091   8.718   1.005
 2780SOL    HW219020   4.233   8.704   0.925
 2781SOL     OW19021   0.662   1.680   1.291
 2781SOL    HW119022   0.694   1.653   1.200
 2781SOL    HW219023   0.614   1.603   1.333
 2782SOL     OW19024   2.441   6.674   2.449
 2782SOL    HW119025   2.537   6.645   2.456
 2782SOL    HW219026   2.381   6.598   2.474
 2783SOL     OW19027   7.143   6.586   2.837
 2783SOL    HW119028   7.120   6.650   2.763
 2783SOL    HW219029   7.223   6.620   2.886
 2784SOL     OW19030   2.137   3.459   2.966
 2784SOL    HW119031   2.042   3.449   2.996
 2784SOL    HW219032   2.171   3.550   2.991
 2785SOL     OW19033   1.162   7.925   2.263
 2785SOL    HW119034   1.249   7.971   2.272
 2785SOL    HW219035   1.168   7.856   2.191
 2786SOL     OW19036   3.088   4.122   0.823
 2786SOL    HW119037   3.144   4.152   0.746
 2786SOL    HW219038   3.143   4.065   0.884
 2787SOL     OW19039   0.192   5.418   1.746
 2787SOL    HW119040   0.276   5.412   1.692
 2787SOL    HW219041   0.114   5.436   1.685
 2788SOL     OW19042   9.771   6.903   2.774
 2788SOL    HW119043   9.681   6.933   2.741
 2788SOL    HW219044   9.807   6.832   2.714
 2789SOL     OW19045   9.343   9.585   1.413
 2789SOL    HW119046   9.290   9.644   1.474
 2789SOL    HW219047   9.382   9.640   1.339
 2790SOL     OW19048   9.845   0.032   4.318
 2790SOL    HW119049   9.885   0.117   4.284
 2790SOL    HW219050   9.746   0.035   4.305
 2791SOL     OW19051   0.743   3.773   3.090
 2791SOL    HW119052   0.665   3.711   3.098
 2791SOL    HW219053   0.755   3.822   3.176
 2792SOL     OW19054   5.004   1.987   3.007
 2792SOL    HW119055   4.904   1.975   3.008
 2792SOL    HW219056   5.026   2.083   2.994
 2793SOL     OW19057   6.261   9.324   2.668
 2793SOL    HW119058   6.236   9.403   2.612
 2793SOL    HW219059   6.338   9.276   2.625
 2794SOL     OW19060   7.535   3.990   0.710
 2794SOL    HW119061   7.521   3.902   0.665
 2794SOL    HW219062   7.582   3.976   0.797
 2795SOL     OW19063   3.583   9.434   3.235
 2795SOL    HW119064   3.634   9.433   3.149
 2795SOL    HW219065   3.490   9.466   3.218
 2796SOL     OW19066   3.071   3.218   4.388
 2796SOL    HW119067   3.097   3.202   4.293
 2796SOL    HW219068   3.152   3.244   4.441
 2797SOL     OW19069   4.994   9.939   2.007
 2797SOL    HW119070   4.972   9.898   2.096
 2797SOL    HW219071   5.059   9.880   1.958
 2798SOL     OW19072   1.471   2.849   0.871
 2798SOL    HW119073   1.405   2.915   0.836
 2798SOL    HW219074   1.458   2.838   0.970
 2799SOL     OW19075   0.123   7.624   4.114
 2799SOL    HW119076   0.047   7.653   4.171
 2799SOL    HW219077   0.208   7.660   4.150
 2800SOL     OW19078   3.968   9.363   2.560
 2800SOL    HW119079   4.007   9.274   2.536
 2800SOL    HW219080   4.024   9.406   2.631
 2801SOL     OW19081   3.430   9.285   1.346
 2801SOL    HW119082   3.480   9.314   1.264
 2801SOL    HW219083   3.378   9.363   1.383
 2802SOL     OW19084   3.253   5.595   2.743
 2802SOL    HW119085   3.188   5.639   2.806
 2802SOL    HW219086   3.298   5.665   2.688
 2803SOL     OW19087   4.589   5.469   1.026
 2803SOL    HW119088   4.597   5.458   0.927
 2803SOL    HW219089   4.580   5.567   1.048
 2804SOL     OW19090   0.613   9.053   0.960
 2804SOL    HW119091   0.543   9.103   1.012
 2804SOL    HW219092   0.664   9.117   0.902
 2805SOL     OW19093   9.699   9.477   3.530
 2805SOL    HW119094   9.796   9.466   3.555
 2805SOL    HW219095   9.644   9.482   3.613
 2806SOL     OW19096   3.839   3.060   3.664
 2806SOL    HW119097   3.925   3.049   3.714
 2806SOL    HW219098   3.820   3.158   3.652
 2807SOL     OW19099   7.608   0.285   1.123
 2807SOL    HW119100   7.580   0.313   1.214
 2807SOL    HW219101   7.708   0.283   1.118
 2808SOL     OW19102   0.599   9.469   0.449
 2808SOL    HW119103   0.500   9.469   0.466
 2808SOL    HW219104   0.620   9.536   0.377
 2809SOL     OW19105   7.539   0.370   0.488
 2809SOL    HW119106   7.620   0.362   0.546
 2809SOL    HW219107   7.480   0.442   0.523
 2810SOL     OW19108   2.169   0.469   1.669
 2810SOL    HW119109   2.213   0.381   1.688
 2810SOL    HW219110   2.150   0.476   1.571
 2811SOL     OW19111   7.217   7.421   2.473
 2811SOL    HW119112   7.244   7.419   2.376
 2811SOL    HW219113   7.140   7.359   2.487
 2812SOL     OW19114   9.230   6.045   2.478
 2812SOL    HW119115   9.139   6.026   2.515
 2812SOL    HW219116   9.289   5.965   2.488
 2813SOL     OW19117   0.409   6.682   1.166
 2813SOL    HW119118   0.356   6.598   1.151
 2813SOL    HW219119   0.481   6.688   1.097
 2814SOL     OW19120   5.101   0.842   1.910
 2814SOL    HW119121   5.031   0.825   1.979
 2814SOL    HW219122   5.186   0.798   1.937
 2815SOL     OW19123   0.905   2.838   3.130
 2815SOL    HW119124   0.905   2.740   3.148
 2815SOL    HW219125   0.836   2.883   3.186
 2816SOL     OW19126   1.697   1.121   1.721
 2816SOL    HW119127   1.613   1.161   1.684
 2816SOL    HW219128   1.691   1.022   1.720
 2817SOL     OW19129   0.143   5.656   3.592
 2817SOL    HW119130   0.211   5.623   3.657
 2817SOL    HW219131   0.185   5.663   3.501
 2818SOL     OW19132   7.746   9.885   2.150
 2818SOL    HW119133   7.694   9.910   2.068
 2818SOL    HW219134   7.741   9.959   2.217
 2819SOL     OW19135   8.947   1.781   3.338
 2819SOL    HW119136   8.916   1.875   3.323
 2819SOL    HW219137   9.046   1.776   3.326
 2820SOL     OW19138   2.031   1.340   2.069
 2820SOL    HW119139   2.117   1.353   2.117
 2820SOL    HW219140   2.047   1.290   1.984
 2821SOL     OW19141   9.037   0.596   2.668
 2821SOL    HW119142   9.097   0.519   2.652
 2821SOL    HW219143   9.091   0.676   2.695
 2822SOL     OW19144   0.770   2.723   2.496
 2822SOL    HW119145   0.752   2.633   2.535
 2822SOL    HW219146   0.868   2.741   2.497
 2823SOL     OW19147   0.583   2.926   0.168
 2823SOL    HW119148   0.599   2.951   0.264
 2823SOL    HW219149   0.519   2.849   0.164
 2824SOL     OW19150   2.498   5.487   2.880
 2824SOL    HW119151   2.464   5.450   2.966
 2824SOL    HW219152   2.504   5.414   2.812
 2825SOL     OW19153   1.433   5.892   1.284
 2825SOL    HW119154   1.426   5.799   1.322
 2825SOL    HW219155   1.501   5.894   1.211
 2826SOL     OW19156   8.994   1.286   0.519
 2826SOL    HW119157   8.965   1.199   0.479
 2826SOL    HW219158   9.094   1.294   0.514
 2827SOL     OW19159   9.512   8.528   3.153
 2827SOL    HW119160   9.443   8.481   3.098
 2827SOL    HW219161   9.488   8.625   3.160
 2828SOL     OW19162   6.744   8.539   3.903
 2828SOL    HW119163   6.677   8.540   3.977
 2828SOL    HW219164   6.728   8.617   3.842
 2829SOL     OW19165   3.702   6.816   3.362
 2829SOL    HW119166   3.646   6.897   3.343
 2829SOL    HW219167   3.747   6.786   3.278
 2830SOL     OW19168   4.603   1.943   2.122
 2830SOL    HW119169   4.521   1.894   2.090
 2830SOL    HW219170   4.643   1.894   2.199
 2831SOL     OW19171   0.955   3.043   1.167
 2831SOL    HW119172   1.023   2.974   1.190
 2831SOL    HW219173   0.879   3.000   1.118
 2832SOL     OW19174   7.024   9.086   1.815
 2832SOL    HW119175   6.983   9.077   1.906
 2832SOL    HW219176   6.991   9.012   1.757
 2833SOL     OW19177   2.120   3.840   0.833
 2833SOL    HW119178   2.113   3.761   0.773
 2833SOL    HW219179   2.047   3.905   0.811
 2834SOL     OW19180   9.522   0.050   2.489
 2834SOL    HW119181   9.488   0.099   2.568
 2834SOL    HW219182   9.621   0.036   2.498
 2835SOL     OW19183   4.493   7.365   4.200
 2835SOL    HW119184   4.556   7.301   4.156
 2835SOL    HW219185   4.514   7.372   4.297
 2836SOL     OW19186   8.609   4.868   4.031
 2836SOL    HW119187   8.549   4.788   4.025
 2836SOL    HW219188   8.686   4.856   3.968
 2837SOL     OW19189   1.748   4.253   1.718
 2837SOL    HW119190   1.688   4.333   1.706
 2837SOL    HW219191   1.843   4.283   1.719
 2838SOL     OW19192   0.649   1.188   1.346
 2838SOL    HW119193   0.627   1.233   1.260
 2838SOL    HW219194   0.664   1.091   1.331
 2839SOL     OW19195   2.537   6.181   3.840
 2839SOL    HW119196   2.599   6.143   3.908
 2839SOL    HW219197   2.521   6.114   3.768
 2840SOL     OW19198   6.242   1.365   3.410
 2840SOL    HW119199   6.233   1.421   3.327
 2840SOL    HW219200   6.161   1.306   3.418
 2841SOL     OW19201   8.800   0.977   1.492
 2841SOL    HW119202   8.706   1.011   1.487
 2841SOL    HW219203   8.803   0.898   1.554
 2842SOL     OW19204   7.319   7.150   2.469
 2842SOL    HW119205   7.270   7.133   2.384
 2842SOL    HW219206   7.306   7.246   2.496
 2843SOL     OW19207   8.125   4.623   3.282
 2843SOL    HW119208   8.075   4.709   3.295
 2843SOL    HW219209   8.180   4.629   3.199
 2844SOL     OW19210   5.040   7.404   4.376
 2844SOL    HW119211   5.063   7.316   4.334
 2844SOL    HW219212   4.966   7.392   4.442
 2845SOL     OW19213   8.941   7.092   2.748
 2845SOL    HW119214   8.963   7.159   2.677
 2845SOL    HW219215   8.998   7.010   2.736
 2846SOL     OW19216   5.489   7.533   3.732
 2846SOL    HW119217   5.504   7.520   3.634
 2846SOL    HW219218   5.577   7.534   3.779
 2847SOL     OW19219   8.085   4.698   4.398
 2847SOL    HW119220   8.131   4.787   4.401
 2847SOL    HW219221   8.011   4.697   4.466
 2848SOL     OW19222   0.086   5.977   0.657
 2848SOL    HW119223   0.177   6.005   0.629
 2848SOL    HW219224   0.018   6.017   0.595
 2849SOL     OW19225   1.223   5.100   1.167
 2849SOL    HW119226   1.136   5.094   1.216
 2849SOL    HW219227   1.295   5.126   1.230
 2850SOL     OW19228   8.984   8.341   2.549
 2850SOL    HW119229   8.938   8.430   2.550
 2850SOL    HW219230   8.916   8.268   2.558
 2851SOL     OW19231   2.913   1.936   1.539
 2851SOL    HW119232   2.994   1.880   1.555
 2851SOL    HW219233   2.922   1.984   1.452
 2852SOL     OW19234   7.938   5.628   3.393
 2852SOL    HW119235   8.011   5.613   3.460
 2852SOL    HW219236   7.862   5.565   3.413
 2853SOL     OW19237   7.456   7.677   1.711
 2853SOL    HW119238   7.420   7.747   1.650
 2853SOL    HW219239   7.408   7.681   1.799
 2854SOL     OW19240   8.956   7.747   0.970
 2854SOL    HW119241   8.869   7.741   1.019
 2854SOL    HW219242   9.031   7.729   1.034
 2855SOL     OW19243   8.185   3.767   4.081
 2855SOL    HW119244   8.181   3.848   4.140
 2855SOL    HW219245   8.153   3.687   4.130
 2856SOL     OW19246   2.603   3.050   4.102
 2856SOL    HW119247   2.616   2.981   4.173
 2856SOL    HW219248   2.565   3.133   4.143
 2857SOL     OW19249   6.527   8.075   2.764
 2857SOL    HW119250   6.610   8.127   2.741
 2857SOL    HW219251   6.551   7.979   2.777
 2858SOL     OW19252   8.251   9.057   0.612
 2858SOL    HW119253   8.167   9.109   0.625
 2858SOL    HW219254   8.288   9.030   0.701
 2859SOL     OW19255   0.087   2.598   4.230
 2859SOL    HW119256   0.164   2.539   4.255
 2859SOL    HW219257   0.118   2.693   4.225
 2860SOL     OW19258   7.651   8.316   0.952
 2860SOL    HW119259   7.569   8.371   0.966
 2860SOL    HW219260   7.707   8.358   0.881
 2861SOL     OW19261   1.170   4.021   3.176
 2861SOL    HW119262   1.135   3.949   3.236
 2861SOL    HW219263   1.180   4.106   3.228
 2862SOL     OW19264   9.349   0.704   3.518
 2862SOL    HW119265   9.409   0.657   3.582
 2862SOL    HW219266   9.271   0.743   3.567
 2863SOL     OW19267   9.028   6.803   2.503
 2863SOL    HW119268   9.052   6.709   2.475
 2863SOL    HW219269   9.043   6.812   2.602
 2864SOL     OW19270   1.636   9.097   2.143
 2864SOL    HW119271   1.646   9.177   2.084
 2864SOL    HW219272   1.545   9.098   2.186
 2865SOL     OW19273   3.272   7.876   0.895
 2865SOL    HW119274   3.194   7.908   0.949
 2865SOL    HW219275   3.248   7.877   0.798
 2866SOL     OW19276   1.781   6.545   1.882
 2866SOL    HW119277   1.692   6.504   1.864
 2866SOL    HW219278   1.830   6.556   1.795
 2867SOL     OW19279   2.799   0.505   3.571
 2867SOL    HW119280   2.829   0.422   3.524
 2867SOL    HW219281   2.877   0.566   3.583
 2868SOL     OW19282   7.678   0.956   3.292
 2868SOL    HW119283   7.675   1.056   3.293
 2868SOL    HW219284   7.650   0.923   3.202
 2869SOL     OW19285   2.333   7.213   1.737
 2869SOL    HW119286   2.417   7.264   1.758
 2869SOL    HW219287   2.290   7.183   1.822
 2870SOL     OW19288   1.857   4.939   1.284
 2870SOL    HW119289   1.814   5.000   1.217
 2870SOL    HW219290   1.787   4.902   1.345
 2871SOL     OW19291   3.015   0.948   1.777
 2871SOL    HW119292   3.000   0.854   1.807
 2871SOL    HW219293   2.988   0.957   1.682
 2872SOL     OW19294   7.026   1.571   2.265
 2872SOL    HW119295   7.046   1.624   2.182
 2872SOL    HW219296   7.008   1.476   2.240
 2873SOL     OW19297   7.678   9.615   4.001
 2873SOL    HW119298   7.763   9.564   4.009
 2873SOL    HW219299   7.601   9.550   3.995
 2874SOL     OW19300   8.341   3.232   2.540
 2874SOL    HW119301   8.414   3.297   2.564
 2874SOL    HW219302   8.358   3.195   2.449
 2875SOL     OW19303   8.304   0.389   1.158
 2875SOL    HW119304   8.298   0.334   1.075
 2875SOL    HW219305   8.318   0.485   1.133
 2876SOL     OW19306   3.611   2.300   0.300
 2876SOL    HW119307   3.633   2.343   0.388
 2876SOL    HW219308   3.685   2.316   0.235
 2877SOL     OW19309   7.346   6.091   3.820
 2877SOL    HW119310   7.419   6.072   3.754
 2877SOL    HW219311   7.257   6.067   3.780
 2878SOL     OW19312   1.219   2.719   1.934
 2878SOL    HW119313   1.271   2.659   1.995
 2878SOL    HW219314   1.263   2.808   1.929
 2879SOL     OW19315   9.228   8.570   0.999
 2879SOL    HW119316   9.195   8.660   1.028
 2879SOL    HW219317   9.257   8.518   1.080
 2880SOL     OW19318   5.008   9.632   3.487
 2880SOL    HW119319   5.022   9.731   3.483
 2880SOL    HW219320   4.911   9.611   3.471
 2881SOL     OW19321   0.103   9.237   3.652
 2881SOL    HW119322   0.019   9.183   3.664
 2881SOL    HW219323   0.173   9.203   3.715
 2882SOL     OW19324   8.749   7.190   1.799
 2882SOL    HW119325   8.666   7.237   1.831
 2882SOL    HW219326   8.727   7.096   1.775
 2883SOL     OW19327   4.270   4.244   1.029
 2883SOL    HW119328   4.355   4.275   1.071
 2883SOL    HW219329   4.270   4.268   0.932
 2884SOL     OW19330   9.048   0.361   4.147
 2884SOL    HW119331   9.036   0.420   4.067
 2884SOL    HW219332   8.960   0.346   4.191
 2885SOL     OW19333   1.262   8.928   2.690
 2885SOL    HW119334   1.355   8.962   2.671
 2885SOL    HW219335   1.230   8.874   2.612
 2886SOL     OW19336   8.913   3.202   0.124
 2886SOL    HW119337   8.824   3.226   0.163
 2886SOL    HW219338   8.933   3.106   0.144
 2887SOL     OW19339   8.785   7.736   2.731
 2887SOL    HW119340   8.817   7.643   2.718
 2887SOL    HW219341   8.715   7.757   2.663
 2888SOL     OW19342   8.368   0.598   1.542
 2888SOL    HW119343   8.416   0.681   1.568
 2888SOL    HW219344   8.414   0.555   1.465
 2889SOL     OW19345   0.267   3.572   0.150
 2889SOL    HW119346   0.233   3.666   0.151
 2889SOL    HW219347   0.193   3.510   0.125
 2890SOL     OW19348   8.975   1.541   2.840
 2890SOL    HW119349   9.020   1.553   2.928
 2890SOL    HW219350   9.022   1.471   2.787
 2891SOL     OW19351   8.684   8.971   0.414
 2891SOL    HW119352   8.602   9.028   0.414
 2891SOL    HW219353   8.730   8.979   0.503
 2892SOL     OW19354   2.134   6.818   1.763
 2892SOL    HW119355   2.179   6.876   1.695
 2892SOL    HW219356   2.194   6.742   1.788
 2893SOL     OW19357   2.329   6.467   2.077
 2893SOL    HW119358   2.253   6.505   2.130
 2893SOL    HW219359   2.326   6.367   2.081
 2894SOL     OW19360   9.667   5.638   2.686
 2894SOL    HW119361   9.629   5.545   2.689
 2894SOL    HW219362   9.598   5.703   2.717
 2895SOL     OW19363   3.530   5.774   1.196
 2895SOL    HW119364   3.573   5.843   1.138
 2895SOL    HW219365   3.553   5.683   1.162
 2896SOL     OW19366   7.895   8.253   1.900
 2896SOL    HW119367   7.959   8.192   1.946
 2896SOL    HW219368   7.832   8.199   1.844
 2897SOL     OW19369   4.639   2.120   0.691
 2897SOL    HW119370   4.563   2.066   0.727
 2897SOL    HW219371   4.673   2.182   0.762
 2898SOL     OW19372   7.769   6.289   3.187
 2898SOL    HW119373   7.710   6.322   3.113
 2898SOL    HW219374   7.763   6.352   3.264
 2899SOL     OW19375   2.541   2.789   3.697
 2899SOL    HW119376   2.509   2.842   3.776
 2899SOL    HW219377   2.613   2.726   3.727
 2900SOL     OW19378   2.023   3.494   1.881
 2900SOL    HW119379   2.055   3.485   1.786
 2900SOL    HW219380   1.941   3.550   1.884
 2901SOL     OW19381   2.663   9.152   0.634
 2901SOL    HW119382   2.611   9.067   0.635
 2901SOL    HW219383   2.630   9.212   0.707
 2902SOL     OW19384   5.345   8.632   1.431
 2902SOL    HW119385   5.296   8.545   1.419
 2902SOL    HW219386   5.305   8.682   1.508
 2903SOL     OW19387   6.766   7.559   2.323
 2903SOL    HW119388   6.678   7.525   2.288
 2903SOL    HW219389   6.787   7.647   2.280
 2904SOL     OW19390   6.926   0.764   2.932
 2904SOL    HW119391   6.833   0.797   2.918
 2904SOL    HW219392   6.923   0.672   2.972
 2905SOL     OW19393   5.042   9.348   1.253
 2905SOL    HW119394   5.011   9.252   1.258
 2905SOL    HW219395   5.025   9.383   1.161
 2906SOL     OW19396   7.233   0.043   2.256
 2906SOL    HW119397   7.296   0.102   2.205
 2906SOL    HW219398   7.259   9.947   2.243
 2907SOL     OW19399   1.504   9.467   2.639
 2907SOL    HW119400   1.580   9.468   2.703
 2907SOL    HW219401   1.473   9.561   2.623
 2908SOL     OW19402   6.383   0.800   0.638
 2908SOL    HW119403   6.410   0.806   0.734
 2908SOL    HW219404   6.438   0.730   0.592
 2909SOL     OW19405   3.238   9.119   2.224
 2909SOL    HW119406   3.336   9.105   2.206
 2909SOL    HW219407   3.212   9.211   2.196
 2910SOL     OW19408   7.143   7.643   1.476
 2910SOL    HW119409   7.089   7.656   1.393
 2910SOL    HW219410   7.083   7.609   1.549
 2911SOL     OW19411   7.848   2.613   0.212
 2911SOL    HW119412   7.774   2.587   0.149
 2911SOL    HW219413   7.873   2.708   0.195
 2912SOL     OW19414   9.488   7.109   4.090
 2912SOL    HW119415   9.564   7.155   4.136
 2912SOL    HW219416   9.468   7.158   4.005
 2913SOL     OW19417   9.501   8.922   0.866
 2913SOL    HW119418   9.567   8.968   0.806
 2913SOL    HW219419   9.539   8.917   0.958
 2914SOL     OW19420   5.485   9.180   2.528
 2914SOL    HW119421   5.450   9.187   2.435
 2914SOL    HW219422   5.572   9.129   2.527
 2915SOL     OW19423   8.686   5.066   2.843
 2915SOL    HW119424   8.631   5.000   2.895
 2915SOL    HW219425   8.634   5.151   2.833
 2916SOL     OW19426   9.748   9.720   3.789
 2916SOL    HW119427   9.726   9.817   3.801
 2916SOL    HW219428   9.847   9.708   3.796
 2917SOL     OW19429   8.062   5.100   3.178
 2917SOL    HW119430   8.080   5.153   3.096
 2917SOL    HW219431   8.003   5.152   3.239
 2918SOL     OW19432   0.476   8.542   3.787
 2918SOL    HW119433   0.462   8.445   3.768
 2918SOL    HW219434   0.573   8.559   3.804
 2919SOL     OW19435   7.961   2.681   2.038
 2919SOL    HW119436   7.935   2.769   2.000
 2919SOL    HW219437   7.953   2.684   2.138
 2920SOL     OW19438   8.716   1.117   3.052
 2920SOL    HW119439   8.670   1.171   3.123
 2920SOL    HW219440   8.756   1.036   3.094
 2921SOL     OW19441   8.684   8.086   0.802
 2921SOL    HW119442   8.672   8.017   0.731
 2921SOL    HW219443   8.775   8.127   0.795
 2922SOL     OW19444   2.795   6.453   2.919
 2922SOL    HW119445   2.700   6.477   2.940
 2922SOL    HW219446   2.850   6.537   2.916
 2923SOL     OW19447   1.861   7.052   3.832
 2923SOL    HW119448   1.864   6.976   3.767
 2923SOL    HW219449   1.939   7.112   3.817
 2924SOL     OW19450   1.708   1.810   3.851
 2924SOL    HW119451   1.740   1.872   3.779
 2924SOL    HW219452   1.681   1.723   3.810
 2925SOL     OW19453   7.445   8.717   1.566
 2925SOL    HW119454   7.497   8.643   1.523
 2925SOL    HW219455   7.505   8.767   1.629
 2926SOL     OW19456   1.645   2.583   2.058
 2926SOL    HW119457   1.546   2.571   2.060
 2926SOL    HW219458   1.666   2.674   2.022
 2927SOL     OW19459   6.442   0.661   2.211
 2927SOL    HW119460   6.411   0.576   2.254
 2927SOL    HW219461   6.461   0.645   2.115
 2928SOL     OW19462   9.884   8.179   2.640
 2928SOL    HW119463   9.888   8.086   2.605
 2928SOL    HW219464   9.946   8.188   2.718
 2929SOL     OW19465   1.118   8.405   4.126
 2929SOL    HW119466   1.041   8.453   4.169
 2929SOL    HW219467   1.160   8.343   4.192
 2930SOL     OW19468   1.838   5.689   2.852
 2930SOL    HW119469   1.753   5.743   2.847
 2930SOL    HW219470   1.873   5.675   2.759
 2931SOL     OW19471   7.431   2.215   0.086
 2931SOL    HW119472   7.380   2.164   0.016
 2931SOL    HW219473   7.528   2.195   0.078
 2932SOL     OW19474   0.738   9.065   3.038
 2932SOL    HW119475   0.647   9.082   3.001
 2932SOL    HW219476   0.784   8.995   2.984
 2933SOL     OW19477   3.423   0.615   1.921
 2933SOL    HW119478   3.415   0.537   1.982
 2933SOL    HW219479   3.358   0.607   1.846
 2934SOL     OW19480   0.827   7.336   3.313
 2934SOL    HW119481   0.869   7.405   3.253
 2934SOL    HW219482   0.881   7.329   3.397
 2935SOL     OW19483   1.142   5.477   2.482
 2935SOL    HW119484   1.073   5.404   2.485
 2935SOL    HW219485   1.164   5.499   2.387
 2936SOL     OW19486   3.872   9.567   1.123
 2936SOL    HW119487   3.934   9.602   1.193
 2936SOL    HW219488   3.859   9.468   1.137
 2937SOL     OW19489   6.027   0.870   2.140
 2937SOL    HW119490   5.982   0.840   2.224
 2937SOL    HW219491   6.124   0.886   2.159
 2938SOL     OW19492   0.381   7.694   4.190
 2938SOL    HW119493   0.466   7.650   4.218
 2938SOL    HW219494   0.381   7.790   4.217
 2939SOL     OW19495   5.508   9.574   3.496
 2939SOL    HW119496   5.414   9.546   3.482
 2939SOL    HW219497   5.554   9.585   3.408
 2940SOL     OW19498   0.445   2.237   0.653
 2940SOL    HW119499   0.405   2.175   0.586
 2940SOL    HW219500   0.389   2.320   0.659
 2941SOL     OW19501   8.757   4.098   3.259
 2941SOL    HW119502   8.713   4.019   3.218
 2941SOL    HW219503   8.795   4.072   3.348
 2942SOL     OW19504   7.934   1.347   0.244
 2942SOL    HW119505   7.994   1.376   0.170
 2942SOL    HW219506   7.887   1.427   0.282
 2943SOL     OW19507   1.917   4.898   4.010
 2943SOL    HW119508   1.965   4.818   4.047
 2943SOL    HW219509   1.830   4.910   4.059
 2944SOL     OW19510   0.713   1.840   3.107
 2944SOL    HW119511   0.732   1.857   3.010
 2944SOL    HW219512   0.790   1.792   3.148
 2945SOL     OW19513   1.876   0.051   1.972
 2945SOL    HW119514   1.889   0.007   2.061
 2945SOL    HW219515   1.927   0.001   1.902
 2946SOL     OW19516   9.461   5.146   0.127
 2946SOL    HW119517   9.405   5.228   0.138
 2946SOL    HW219518   9.402   5.065   0.121
 2947SOL     OW19519   8.685   3.846   1.875
 2947SOL    HW119520   8.593   3.841   1.837
 2947SOL    HW219521   8.699   3.935   1.917
 2948SOL     OW19522   6.865   9.183   1.531
 2948SOL    HW119523   6.849   9.241   1.611
 2948SOL    HW219524   6.783   9.130   1.510
 2949SOL     OW19525   3.939   9.702   2.022
 2949SOL    HW119526   3.930   9.755   2.106
 2949SOL    HW219527   4.003   9.747   1.961
 2950SOL     OW19528   7.607   5.516   3.498
 2950SOL    HW119529   7.669   5.452   3.544
 2950SOL    HW219530   7.513   5.487   3.512
 2951SOL     OW19531   9.243   5.751   0.953
 2951SOL    HW119532   9.191   5.687   0.897
 2951SOL    HW219533   9.301   5.700   1.017
 2952SOL     OW19534   7.070   9.212   2.750
 2952SOL    HW119535   7.109   9.121   2.738
 2952SOL    HW219536   7.129   9.267   2.810
 2953SOL     OW19537   6.775   7.191   2.437
 2953SOL    HW119538   6.737   7.203   2.345
 2953SOL    HW219539   6.733   7.111   2.480
 2954SOL     OW19540   4.918   3.639   1.646
 2954SOL    HW119541   4.987   3.610   1.580
 2954SOL    HW219542   4.881   3.727   1.618
 2955SOL     OW19543   0.094   1.724   0.612
 2955SOL    HW119544   0.131   1.679   0.693
 2955SOL    HW219545   9.999   1.698   0.600
 2956SOL     OW19546   6.097   0.388   1.665
 2956SOL    HW119547   6.121   0.342   1.751
 2956SOL    HW219548   5.997   0.392   1.657
 2957SOL     OW19549   1.924   1.267   1.780
 2957SOL    HW119550   1.845   1.206   1.764
 2957SOL    HW219551   2.006   1.224   1.743
 2958SOL     OW19552   9.278   1.545   1.260
 2958SOL    HW119553   9.252   1.517   1.167
 2958SOL    HW219554   9.209   1.513   1.325
 2959SOL     OW19555   0.179   0.092   3.974
 2959SOL    HW119556   0.228   0.093   3.887
 2959SOL    HW219557   0.186   0.182   4.018
 2960SOL     OW19558   1.877   8.462   1.845
 2960SOL    HW119559   1.905   8.553   1.877
 2960SOL    HW219560   1.888   8.396   1.919
 2961SOL     OW19561   9.948   1.512   3.360
 2961SOL    HW119562   9.932   1.555   3.448
 2961SOL    HW219563   9.876   1.445   3.342
 2962SOL     OW19564   7.864   9.194   3.977
 2962SOL    HW119565   7.920   9.165   3.900
 2962SOL    HW219566   7.769   9.171   3.960
 2963SOL     OW19567   4.205   0.970   1.866
 2963SOL    HW119568   4.120   1.023   1.867
 2963SOL    HW219569   4.186   0.877   1.836
 2964SOL     OW19570   7.423   6.935   3.702
 2964SOL    HW119571   7.391   7.030   3.705
 2964SOL    HW219572   7.494   6.926   3.632
 2965SOL     OW19573   8.292   1.280   3.682
 2965SOL    HW119574   8.314   1.357   3.742
 2965SOL    HW219575   8.217   1.227   3.722
 2966SOL     OW19576   6.943   7.355   2.218
 2966SOL    HW119577   6.900   7.421   2.280
 2966SOL    HW219578   6.872   7.301   2.173
 2967SOL     OW19579   3.070   9.176   4.397
 2967SOL    HW119580   3.137   9.103   4.407
 2967SOL    HW219581   2.986   9.151   4.445
 2968SOL     OW19582   1.530   4.470   1.252
 2968SOL    HW119583   1.625   4.495   1.270
 2968SOL    HW219584   1.528   4.387   1.196
 2969SOL     OW19585   0.645   6.432   3.613
 2969SOL    HW119586   0.646   6.381   3.699
 2969SOL    HW219587   0.676   6.372   3.539
 2970SOL     OW19588   5.300   7.128   2.605
 2970SOL    HW119589   5.217   7.095   2.650
 2970SOL    HW219590   5.279   7.208   2.549
 2971SOL     OW19591   0.031   6.009   2.293
 2971SOL    HW119592   0.101   5.946   2.326
 2971SOL    HW219593   9.956   6.014   2.359
 2972SOL     OW19594   2.689   5.442   3.769
 2972SOL    HW119595   2.779   5.399   3.774
 2972SOL    HW219596   2.639   5.405   3.691
 2973SOL     OW19597   9.483   4.030   4.185
 2973SOL    HW119598   9.457   4.029   4.282
 2973SOL    HW219599   9.463   3.941   4.145
 2974SOL     OW19600   7.762   3.165   1.008
 2974SOL    HW119601   7.800   3.144   1.098
 2974SOL    HW219602   7.779   3.089   0.945
 2975SOL     OW19603   2.455   9.566   2.013
 2975SOL    HW119604   2.454   9.663   1.990
 2975SOL    HW219605   2.461   9.511   1.930
 2976SOL     OW19606   1.885   9.214   1.683
 2976SOL    HW119607   1.900   9.192   1.779
 2976SOL    HW219608   1.907   9.311   1.667
 2977SOL     OW19609   2.449   0.021   3.754
 2977SOL    HW119610   2.379   0.077   3.711
 2977SOL    HW219611   2.470   9.942   3.697
 2978SOL     OW19612   0.160   6.981   0.427
 2978SOL    HW119613   0.233   6.984   0.496
 2978SOL    HW219614   0.191   6.930   0.347
 2979SOL     OW19615   5.343   8.301   3.304
 2979SOL    HW119616   5.409   8.375   3.305
 2979SOL    HW219617   5.335   8.262   3.396
 2980SOL     OW19618   0.428   9.136   0.510
 2980SOL    HW119619   0.390   9.183   0.590
 2980SOL    HW219620   0.512   9.090   0.535
 2981SOL     OW19621   3.502   0.118   0.184
 2981SOL    HW119622   3.595   0.132   0.150
 2981SOL    HW219623   3.498   0.034   0.237
 2982SOL     OW19624   1.076   9.815   3.841
 2982SOL    HW119625   1.121   9.739   3.794
 2982SOL    HW219626   1.052   9.886   3.775
 2983SOL     OW19627   3.085   4.543   2.699
 2983SOL    HW119628   3.170   4.545   2.752
 2983SOL    HW219629   3.019   4.606   2.740
 2984SOL     OW19630   9.957   1.521   1.414
 2984SOL    HW119631   9.861   1.521   1.441
 2984SOL    HW219632   0.013   1.554   1.490
 2985SOL     OW19633   6.903   7.863   1.735
 2985SOL    HW119634   6.992   7.908   1.741
 2985SOL    HW219635   6.896   7.793   1.806
 2986SOL     OW19636   1.060   3.286   1.689
 2986SOL    HW119637   1.125   3.361   1.706
 2986SOL    HW219638   1.102   3.220   1.627
 2987SOL     OW19639   3.024   9.879   0.606
 2987SOL    HW119640   2.973   9.939   0.543
 2987SOL    HW219641   2.962   9.814   0.648
 2988SOL     OW19642   7.954   0.624   1.105
 2988SOL    HW119643   7.990   0.627   1.012
 2988SOL    HW219644   7.869   0.676   1.110
 2989SOL     OW19645   8.354   2.326   0.826
 2989SOL    HW119646   8.409   2.262   0.772
 2989SOL    HW219647   8.406   2.410   0.843
 2990SOL     OW19648   8.099   9.173   0.904
 2990SOL    HW119649   8.060   9.182   0.812
 2990SOL    HW219650   8.025   9.178   0.972
 2991SOL     OW19651   9.007   4.361   2.885
 2991SOL    HW119652   8.972   4.283   2.833
 2991SOL    HW219653   9.002   4.341   2.983
 2992SOL     OW19654   9.060   9.453   1.391
 2992SOL    HW119655   9.073   9.412   1.481
 2992SOL    HW219656   9.138   9.511   1.369
 2993SOL     OW19657   4.845   1.103   3.460
 2993SOL    HW119658   4.899   1.024   3.430
 2993SOL    HW219659   4.907   1.177   3.486
 2994SOL     OW19660   3.230   1.026   3.636
 2994SOL    HW119661   3.171   0.955   3.673
 2994SOL    HW219662   3.326   0.999   3.647
 2995SOL     OW19663   2.760   2.870   3.000
 2995SOL    HW119664   2.762   2.856   2.901
 2995SOL    HW219665   2.672   2.840   3.036
 2996SOL     OW19666   2.401   2.441   0.778
 2996SOL    HW119667   2.453   2.526   0.790
 2996SOL    HW219668   2.325   2.456   0.715
 2997SOL     OW19669   6.208   6.806   3.961
 2997SOL    HW119670   6.127   6.862   3.944
 2997SOL    HW219671   6.252   6.834   4.046
 2998SOL     OW19672   3.714   1.032   2.370
 2998SOL    HW119673   3.762   0.987   2.296
 2998SOL    HW219674   3.698   1.128   2.347
 2999SOL     OW19675   4.383   4.306   0.390
 2999SOL    HW119676   4.432   4.275   0.309
 2999SOL    HW219677   4.361   4.228   0.448
 3000SOL     OW19678   4.112   3.064   2.329
 3000SOL    HW119679   4.105   2.968   2.359
 3000SOL    HW219680   4.206   3.096   2.341
 3001SOL     OW19681   3.508   2.905   1.142
 3001SOL    HW119682   3.550   2.996   1.138
 3001SOL    HW219683   3.421   2.911   1.192
 3002SOL     OW19684   9.941   9.719   3.163
 3002SOL    HW119685   9.946   9.818   3.147
 3002SOL    HW219686   9.886   9.702   3.245
 3003SOL     OW19687   4.122   6.075   1.339
 3003SOL    HW119688   4.060   6.033   1.272
 3003SOL    HW219689   4.069   6.118   1.412
 3004SOL     OW19690   3.391   1.523   2.183
 3004SOL    HW119691   3.310   1.569   2.220
 3004SOL    HW219692   3.473   1.560   2.226
 3005SOL     OW19693   8.872   5.147   1.793
 3005SOL    HW119694   8.949   5.089   1.820
 3005SOL    HW219695   8.815   5.166   1.873
 3006SOL     OW19696   1.829   7.966   1.137
 3006SOL    HW119697   1.869   7.961   1.046
 3006SOL    HW219698   1.787   7.878   1.160
 3007SOL     OW19699   4.537   7.257   1.640
 3007SOL    HW119700   4.610   7.287   1.579
 3007SOL    HW219701   4.530   7.321   1.717
 3008SOL     OW19702   5.150   0.241   0.562
 3008SOL    HW119703   5.089   0.194   0.627
 3008SOL    HW219704   5.214   0.299   0.613
 3009SOL     OW19705   8.746   9.082   1.227
 3009SOL    HW119706   8.775   9.172   1.260
 3009SOL    HW219707   8.661   9.056   1.272
 3010SOL     OW19708   0.318   5.519   0.494
 3010SOL    HW119709   0.387   5.539   0.424
 3010SOL    HW219710   0.266   5.602   0.514
 3011SOL     OW19711   5.232   9.080   4.182
 3011SOL    HW119712   5.242   9.166   4.232
 3011SOL    HW219713   5.191   9.098   4.092
 3012SOL     OW19714   3.535   1.302   3.112
 3012SOL    HW119715   3.478   1.382   3.098
 3012SOL    HW219716   3.618   1.310   3.056
 3013SOL     OW19717   3.184   6.716   1.520
 3013SOL    HW119718   3.143   6.630   1.491
 3013SOL    HW219719   3.251   6.698   1.592
 3014SOL     OW19720   0.011   3.897   3.026
 3014SOL    HW119721   9.957   3.912   2.943
 3014SOL    HW219722   9.949   3.890   3.105
 3015SOL     OW19723   1.289   1.400   1.566
 3015SOL    HW119724   1.201   1.382   1.610
 3015SOL    HW219725   1.274   1.434   1.473
 3016SOL     OW19726   8.521   3.629   4.171
 3016SOL    HW119727   8.571   3.588   4.247
 3016SOL    HW219728   8.483   3.717   4.200
 3017SOL     OW19729   9.299   8.850   1.740
 3017SOL    HW119730   9.264   8.935   1.701
 3017SOL    HW219731   9.242   8.773   1.711
 3018SOL     OW19732   9.115   6.203   0.364
 3018SOL    HW119733   9.137   6.106   0.365
 3018SOL    HW219734   9.047   6.223   0.435
 3019SOL     OW19735   9.258   5.618   3.601
 3019SOL    HW119736   9.178   5.564   3.578
 3019SOL    HW219737   9.277   5.611   3.699
 3020SOL     OW19738   1.649   8.573   3.948
 3020SOL    HW119739   1.709   8.523   3.884
 3020SOL    HW219740   1.564   8.597   3.902
 3021SOL     OW19741   7.206   0.679   3.648
 3021SOL    HW119742   7.217   0.597   3.592
 3021SOL    HW219743   7.230   0.760   3.595
 3022SOL     OW19744   7.096   0.522   4.198
 3022SOL    HW119745   7.039   0.603   4.214
 3022SOL    HW219746   7.190   0.551   4.180
 3023SOL     OW19747   9.363   4.289   0.320
 3023SOL    HW119748   9.349   4.388   0.321
 3023SOL    HW219749   9.333   4.250   0.407
 3024SOL     OW19750   7.443   0.121   0.579
 3024SOL    HW119751   7.478   0.199   0.526
 3024SOL    HW219752   7.346   0.135   0.599
 3025SOL     OW19753   9.163   6.867   0.203
 3025SOL    HW119754   9.101   6.919   0.261
 3025SOL    HW219755   9.235   6.927   0.168
 3026SOL     OW19756   0.102   5.859   2.820
 3026SOL    HW119757   0.179   5.880   2.760
 3026SOL    HW219758   0.063   5.770   2.795
 3027SOL     OW19759   2.978   6.236   2.475
 3027SOL    HW119760   2.901   6.188   2.432
 3027SOL    HW219761   2.947   6.275   2.562
 3028SOL     OW19762   1.316   5.316   0.577
 3028SOL    HW119763   1.387   5.254   0.610
 3028SOL    HW219764   1.267   5.274   0.501
 3029SOL     OW19765   8.541   0.932   2.439
 3029SOL    HW119766   8.443   0.941   2.459
 3029SOL    HW219767   8.591   1.002   2.490
 3030SOL     OW19768   2.882   4.758   1.161
 3030SOL    HW119769   2.899   4.782   1.257
 3030SOL    HW219770   2.944   4.685   1.133
 3031SOL     OW19771   2.790   9.140   2.443
 3031SOL    HW119772   2.702   9.097   2.463
 3031SOL    HW219773   2.856   9.119   2.516
 3032SOL     OW19774   0.774   2.587   0.850
 3032SOL    HW119775   0.815   2.535   0.775
 3032SOL    HW219776   0.847   2.627   0.906
 3033SOL     OW19777   9.984   6.918   2.070
 3033SOL    HW119778   0.058   6.864   2.111
 3033SOL    HW219779   9.910   6.857   2.041
 3034SOL     OW19780   4.665   3.284   2.184
 3034SOL    HW119781   4.765   3.278   2.181
 3034SOL    HW219782   4.626   3.203   2.141
 3035SOL     OW19783   4.958   7.085   2.962
 3035SOL    HW119784   4.921   7.038   3.041
 3035SOL    HW219785   4.883   7.125   2.909
 3036SOL     OW19786   3.273   9.822   0.485
 3036SOL    HW119787   3.190   9.849   0.532
 3036SOL    HW219788   3.329   9.765   0.545
 3037SOL     OW19789   0.990   7.958   3.841
 3037SOL    HW119790   1.025   8.036   3.892
 3037SOL    HW219791   1.059   7.926   3.776
 3038SOL     OW19792   1.253   0.163   1.590
 3038SOL    HW119793   1.221   0.083   1.640
 3038SOL    HW219794   1.223   0.158   1.495
 3039SOL     OW19795   4.701   8.084   4.162
 3039SOL    HW119796   4.694   8.180   4.190
 3039SOL    HW219797   4.611   8.040   4.170
 3040SOL     OW19798   3.823   8.584   0.791
 3040SOL    HW119799   3.858   8.647   0.860
 3040SOL    HW219800   3.740   8.540   0.825
 3041SOL     OW19801   2.922   6.523   0.037
 3041SOL    HW119802   2.911   6.457   5.597
 3041SOL    HW219803   3.008   6.506   0.084
 3042SOL     OW19804   5.056   7.493   2.780
 3042SOL    HW119805   5.081   7.578   2.735
 3042SOL    HW219806   5.016   7.514   2.870
 3043SOL     OW19807   5.053   1.123   2.035
 3043SOL    HW119808   5.085   1.030   2.017
 3043SOL    HW219809   5.083   1.184   1.961
 3044SOL     OW19810   4.516   6.185   1.556
 3044SOL    HW119811   4.533   6.269   1.608
 3044SOL    HW219812   4.603   6.145   1.527
 3045SOL     OW19813   1.716   8.566   4.226
 3045SOL    HW119814   1.815   8.563   4.242
 3045SOL    HW219815   1.698   8.571   4.128
 3046SOL     OW19816   8.631   9.997   1.050
 3046SOL    HW119817   8.603   9.962   1.139
 3046SOL    HW219818   8.640   0.096   1.054
 3047SOL     OW19819   4.042   2.968   0.988
 3047SOL    HW119820   4.139   2.959   0.968
 3047SOL    HW219821   4.005   2.878   1.015
 3048SOL     OW19822   9.427   3.777   4.096
 3048SOL    HW119823   9.468   3.742   4.180
 3048SOL    HW219824   9.329   3.757   4.096
 3049SOL     OW19825   3.714   0.681   2.373
 3049SOL    HW119826   3.655   0.604   2.349
 3049SOL    HW219827   3.660   0.752   2.419
 3050SOL     OW19828   2.502   4.285   4.320
 3050SOL    HW119829   2.468   4.373   4.286
 3050SOL    HW219830   2.602   4.285   4.320
 3051SOL     OW19831   2.946   7.216   0.594
 3051SOL    HW119832   2.852   7.231   0.565
 3051SOL    HW219833   2.988   7.144   0.538
 3052SOL     OW19834   3.074   4.685   4.197
 3052SOL    HW119835   3.161   4.719   4.233
 3052SOL    HW219836   3.091   4.619   4.124
 3053SOL     OW19837   1.111   4.406   0.642
 3053SOL    HW119838   1.137   4.355   0.724
 3053SOL    HW219839   1.179   4.478   0.625
 3054SOL     OW19840   5.799   0.226   0.626
 3054SOL    HW119841   5.777   0.320   0.597
 3054SOL    HW219842   5.888   0.200   0.590
 3055SOL     OW19843   6.688   8.254   2.467
 3055SOL    HW119844   6.731   8.234   2.556
 3055SOL    HW219845   6.752   8.306   2.410
 3056SOL     OW19846   3.906   0.360   0.932
 3056SOL    HW119847   3.879   0.395   0.842
 3056SOL    HW219848   3.827   0.316   0.976
 3057SOL     OW19849   3.968   7.545   2.908
 3057SOL    HW119850   3.871   7.536   2.930
 3057SOL    HW219851   3.978   7.592   2.820
 3058SOL     OW19852   7.786   7.928   2.589
 3058SOL    HW119853   7.802   7.873   2.507
 3058SOL    HW219854   7.713   7.887   2.643
 3059SOL     OW19855   2.395   0.826   0.497
 3059SOL    HW119856   2.314   0.882   0.482
 3059SOL    HW219857   2.471   0.883   0.526
 3060SOL     OW19858   1.076   3.828   3.351
 3060SOL    HW119859   1.098   3.733   3.332
 3060SOL    HW219860   0.977   3.838   3.361
 3061SOL     OW19861   5.586   7.262   1.960
 3061SOL    HW119862   5.552   7.247   2.053
 3061SOL    HW219863   5.568   7.181   1.904
 3062SOL     OW19864   7.475   8.202   2.400
 3062SOL    HW119865   7.432   8.131   2.454
 3062SOL    HW219866   7.471   8.289   2.449
 3063SOL     OW19867   9.776   6.871   4.211
 3063SOL    HW119868   9.731   6.959   4.227
 3063SOL    HW219869   9.869   6.875   4.248
 3064SOL     OW19870   1.319   1.416   0.459
 3064SOL    HW119871   1.304   1.513   0.478
 3064SOL    HW219872   1.282   1.361   0.534
 3065SOL     OW19873   4.671   3.148   0.740
 3065SOL    HW119874   4.699   3.162   0.645
 3065SOL    HW219875   4.658   3.050   0.756
 3066SOL     OW19876   6.616   6.691   3.519
 3066SOL    HW119877   6.577   6.743   3.443
 3066SOL    HW219878   6.634   6.754   3.596
 3067SOL     OW19879   9.967   0.372   3.790
 3067SOL    HW119880   9.968   0.277   3.756
 3067SOL    HW219881   0.060   0.407   3.792
 3068SOL     OW19882   9.829   3.301   2.992
 3068SOL    HW119883   9.888   3.282   3.070
 3068SOL    HW219884   9.868   3.259   2.910
 3069SOL     OW19885   9.217   3.589   2.679
 3069SOL    HW119886   9.296   3.651   2.667
 3069SOL    HW219887   9.142   3.640   2.720
 3070SOL     OW19888   1.550   4.746   4.236
 3070SOL    HW119889   1.491   4.786   4.306
 3070SOL    HW219890   1.585   4.818   4.176
 3071SOL     OW19891   9.778   7.483   3.296
 3071SOL    HW119892   9.857   7.424   3.308
 3071SOL    HW219893   9.719   7.445   3.224
 3072SOL     OW19894   6.732   9.779   2.019
 3072SOL    HW119895   6.681   9.696   1.999
 3072SOL    HW219896   6.770   9.816   1.934
 3073SOL     OW19897   5.423   7.901   2.966
 3073SOL    HW119898   5.363   7.821   2.972
 3073SOL    HW219899   5.397   7.968   3.035
 3074SOL     OW19900   1.455   2.829   3.787
 3074SOL    HW119901   1.416   2.750   3.739
 3074SOL    HW219902   1.554   2.818   3.796
 3075SOL     OW19903   9.135   5.248   2.472
 3075SOL    HW119904   9.232   5.275   2.468
 3075SOL    HW219905   9.099   5.241   2.379
 3076SOL     OW19906   5.548   0.334   2.980
 3076SOL    HW119907   5.480   0.393   3.025
 3076SOL    HW219908   5.631   0.330   3.035
 3077SOL     OW19909   0.140   6.727   2.209
 3077SOL    HW119910   0.240   6.723   2.212
 3077SOL    HW219911   0.105   6.645   2.164
 3078SOL     OW19912   1.857   3.756   1.510
 3078SOL    HW119913   1.879   3.761   1.608
 3078SOL    HW219914   1.855   3.849   1.472
 3079SOL     OW19915   7.069   8.621   1.819
 3079SOL    HW119916   6.980   8.651   1.852
 3079SOL    HW219917   7.061   8.589   1.725
 3080SOL     OW19918   5.049   0.407   3.719
 3080SOL    HW119919   5.002   0.494   3.728
 3080SOL    HW219920   5.131   0.408   3.777
 3081SOL     OW19921   9.353   3.459   0.093
 3081SOL    HW119922   9.256   3.438   0.109
 3081SOL    HW219923   9.367   3.479   5.630
 3082SOL     OW19924   6.645   9.980   2.715
 3082SOL    HW119925   6.701   0.059   2.741
 3082SOL    HW219926   6.628   9.922   2.795
 3083SOL     OW19927   1.063   4.819   4.188
 3083SOL    HW119928   1.113   4.881   4.248
 3083SOL    HW219929   1.066   4.853   4.094
 3084SOL     OW19930   0.503   3.471   0.946
 3084SOL    HW119931   0.447   3.544   0.906
 3084SOL    HW219932   0.505   3.393   0.884
 3085SOL     OW19933   0.413   6.430   3.971
 3085SOL    HW119934   0.333   6.463   3.922
 3085SOL    HW219935   0.433   6.492   4.047
 3086SOL     OW19936   9.709   4.632   1.472
 3086SOL    HW119937   9.660   4.694   1.411
 3086SOL    HW219938   9.707   4.669   1.566
 3087SOL     OW19939   9.912   2.731   0.195
 3087SOL    HW119940   9.962   2.787   0.261
 3087SOL    HW219941   9.978   2.686   0.134
 3088SOL     OW19942   7.723   6.812   3.174
 3088SOL    HW119943   7.686   6.903   3.196
 3088SOL    HW219944   7.648   6.748   3.158
 3089SOL     OW19945   9.790   1.667   4.001
 3089SOL    HW119946   9.820   1.573   4.017
 3089SOL    HW219947   9.690   1.670   4.002
 3090SOL     OW19948   0.276   4.980   2.961
 3090SOL    HW119949   0.215   4.985   2.882
 3090SOL    HW219950   0.361   4.935   2.934
 3091SOL     OW19951   8.125   6.921   1.277
 3091SOL    HW119952   8.085   6.966   1.197
 3091SOL    HW219953   8.193   6.854   1.247
 3092SOL     OW19954   9.557   0.284   4.113
 3092SOL    HW119955   9.620   0.316   4.042
 3092SOL    HW219956   9.463   0.293   4.079
 3093SOL     OW19957   7.704   7.788   3.853
 3093SOL    HW119958   7.649   7.773   3.771
 3093SOL    HW219959   7.668   7.866   3.903
 3094SOL     OW19960   6.527   8.542   3.121
 3094SOL    HW119961   6.516   8.492   3.207
 3094SOL    HW219962   6.616   8.518   3.080
 3095SOL     OW19963   9.099   7.939   1.371
 3095SOL    HW119964   9.195   7.943   1.346
 3095SOL    HW219965   9.069   7.843   1.370
 3096SOL     OW19966   2.035   1.573   0.423
 3096SOL    HW119967   2.065   1.621   0.505
 3096SOL    HW219968   1.975   1.497   0.448
 3097SOL     OW19969   0.437   6.947   2.359
 3097SOL    HW119970   0.423   6.856   2.320
 3097SOL    HW219971   0.494   7.001   2.297
 3098SOL     OW19972   4.892   4.226   0.904
 3098SOL    HW119973   4.856   4.309   0.945
 3098SOL    HW219974   4.968   4.249   0.843
 3099SOL     OW19975   3.073   3.048   3.630
 3099SOL    HW119976   3.066   2.948   3.625
 3099SOL    HW219977   2.982   3.088   3.620
 3100SOL     OW19978   8.920   9.291   2.067
 3100SOL    HW119979   9.020   9.293   2.068
 3100SOL    HW219980   8.884   9.371   2.115
 3101SOL     OW19981   8.656   4.920   2.270
 3101SOL    HW119982   8.626   4.944   2.177
 3101SOL    HW219983   8.710   4.836   2.266
 3102SOL     OW19984   5.358   9.618   2.020
 3102SOL    HW119985   5.348   9.518   2.013
 3102SOL    HW219986   5.385   9.642   2.113
 3103SOL     OW19987   0.702   9.457   0.111
 3103SOL    HW119988   0.669   9.363   0.106
 3103SOL    HW219989   0.791   9.459   0.156
 3104SOL     OW19990   0.979   3.861   2.158
 3104SOL    HW119991   1.068   3.900   2.183
 3104SOL    HW219992   0.911   3.933   2.151
 3105SOL     OW19993   1.825   4.185   0.262
 3105SOL    HW119994   1.736   4.189   0.307
 3105SOL    HW219995   1.831   4.256   0.192
 3106SOL     OW19996   8.118   2.334   1.508
 3106SOL    HW119997   8.181   2.397   1.553
 3106SOL    HW219998   8.069   2.281   1.578
 3107SOL     OW19999   1.420   0.171   3.835
 3107SOL    HW120000   1.375   0.217   3.912
 3107SOL    HW220001   1.485   0.104   3.871
 3108SOL     OW20002   8.487   0.948   0.297
 3108SOL    HW120003   8.488   0.984   0.203
 3108SOL    HW220004   8.528   0.857   0.298
 3109SOL     OW20005   9.240   5.691   2.299
 3109SOL    HW120006   9.221   5.733   2.210
 3109SOL    HW220007   9.274   5.598   2.285
 3110SOL     OW20008   1.432   2.032   1.528
 3110SOL    HW120009   1.473   1.947   1.561
 3110SOL    HW220010   1.333   2.026   1.533
 3111SOL     OW20011   6.571   7.320   1.914
 3111SOL    HW120012   6.537   7.414   1.925
 3111SOL    HW220013   6.495   7.256   1.926
 3112SOL     OW20014   3.298   2.922   4.084
 3112SOL    HW120015   3.315   2.853   4.153
 3112SOL    HW220016   3.205   2.911   4.047
 3113SOL     OW20017   7.786   1.475   0.674
 3113SOL    HW120018   7.854   1.510   0.738
 3113SOL    HW220019   7.715   1.545   0.660
 3114SOL     OW20020   9.682   6.318   0.593
 3114SOL    HW120021   9.609   6.249   0.597
 3114SOL    HW220022   9.700   6.341   0.498
 3115SOL     OW20023   9.797   8.698   1.092
 3115SOL    HW120024   9.760   8.608   1.115
 3115SOL    HW220025   9.726   8.767   1.104
 3116SOL     OW20026   2.273   3.983   1.259
 3116SOL    HW120027   2.276   3.937   1.171
 3116SOL    HW220028   2.314   3.925   1.329
 3117SOL     OW20029   7.954   8.114   4.160
 3117SOL    HW120030   7.905   8.141   4.077
 3117SOL    HW220031   7.969   8.194   4.217
 3118SOL     OW20032   7.689   8.853   1.247
 3118SOL    HW120033   7.771   8.909   1.255
 3118SOL    HW220034   7.687   8.787   1.323
 3119SOL     OW20035   5.899   4.082   0.195
 3119SOL    HW120036   5.877   4.106   0.289
 3119SOL    HW220037   5.923   3.985   0.190
 3120SOL     OW20038   4.373   2.721   0.782
 3120SOL    HW120039   4.326   2.793   0.832
 3120SOL    HW220040   4.465   2.752   0.757
 3121SOL     OW20041   8.486   6.658   1.680
 3121SOL    HW120042   8.549   6.652   1.602
 3121SOL    HW220043   8.537   6.688   1.761
 3122SOL     OW20044   0.573   2.784   1.590
 3122SOL    HW120045   0.584   2.709   1.524
 3122SOL    HW220046   0.530   2.862   1.545
 3123SOL     OW20047   9.930   5.832   4.111
 3123SOL    HW120048   0.006   5.897   4.107
 3123SOL    HW220049   9.966   5.739   4.104
 3124SOL     OW20050   8.179   5.881   3.173
 3124SOL    HW120051   8.251   5.948   3.192
 3124SOL    HW220052   8.135   5.903   3.085
 3125SOL     OW20053   2.140   9.970   4.127
 3125SOL    HW120054   2.143   9.923   4.216
 3125SOL    HW220055   2.230   9.965   4.084
 3126SOL     OW20056   0.930   1.399   3.493
 3126SOL    HW120057   0.943   1.485   3.542
 3126SOL    HW220058   0.840   1.400   3.448
 3127SOL     OW20059   1.616   2.861   3.349
 3127SOL    HW120060   1.526   2.821   3.365
 3127SOL    HW220061   1.620   2.953   3.388
 3128SOL     OW20062   9.148   7.345   0.663
 3128SOL    HW120063   9.248   7.342   0.669
 3128SOL    HW220064   9.114   7.417   0.724
 3129SOL     OW20065   5.104   8.717   3.318
 3129SOL    HW120066   5.108   8.620   3.293
 3129SOL    HW220067   5.115   8.773   3.236
 3130SOL     OW20068   9.350   5.450   2.224
 3130SOL    HW120069   9.370   5.398   2.307
 3130SOL    HW220070   9.435   5.464   2.172
 3131SOL     OW20071   4.210   2.934   1.897
 3131SOL    HW120072   4.264   3.001   1.847
 3131SOL    HW220073   4.145   2.982   1.956
 3132SOL     OW20074   1.221   4.192   3.917
 3132SOL    HW120075   1.311   4.234   3.922
 3132SOL    HW220076   1.170   4.209   4.001
 3133SOL     OW20077   2.502   4.294   0.346
 3133SOL    HW120078   2.552   4.355   0.408
 3133SOL    HW220079   2.555   4.210   0.332
 3134SOL     OW20080   8.769   9.502   2.175
 3134SOL    HW120081   8.752   9.473   2.270
 3134SOL    HW220082   8.686   9.487   2.121
 3135SOL     OW20083   8.656   0.353   1.753
 3135SOL    HW120084   8.665   0.419   1.828
 3135SOL    HW220085   8.735   0.360   1.692
 3136SOL     OW20086   3.940   3.056   0.748
 3136SOL    HW120087   4.020   3.104   0.712
 3136SOL    HW220088   3.961   3.018   0.838
 3137SOL     OW20089   9.041   4.907   1.101
 3137SOL    HW120090   9.117   4.843   1.093
 3137SOL    HW220091   9.029   4.933   1.196
 3138SOL     OW20092   0.968   0.231   0.566
 3138SOL    HW120093   0.989   0.211   0.662
 3138SOL    HW220094   1.012   0.163   0.508
 3139SOL     OW20095   9.422   1.573   0.870
 3139SOL    HW120096   9.346   1.540   0.926
 3139SOL    HW220097   9.388   1.640   0.804
 3140SOL     OW20098   9.853   9.324   2.961
 3140SOL    HW120099   9.883   9.231   2.943
 3140SOL    HW220100   9.896   9.358   3.045
 3141SOL     OW20101   8.583   4.833   2.962
 3141SOL    HW120102   8.562   4.812   3.057
 3141SOL    HW220103   8.671   4.792   2.938
 3142SOL     OW20104   2.223   0.214   1.427
 3142SOL    HW120105   2.262   0.184   1.340
 3142SOL    HW220106   2.181   0.304   1.416
 3143SOL     OW20107   4.975   2.456   3.989
 3143SOL    HW120108   4.965   2.369   3.941
 3143SOL    HW220109   4.901   2.466   4.055
 3144SOL     OW20110   1.896   3.323   0.501
 3144SOL    HW120111   1.930   3.318   0.407
 3144SOL    HW220112   1.889   3.230   0.539
 3145SOL     OW20113   8.723   0.029   1.605
 3145SOL    HW120114   8.667   0.077   1.538
 3145SOL    HW220115   8.684   0.041   1.696
 3146SOL     OW20116   9.903   9.096   2.147
 3146SOL    HW120117   9.905   9.196   2.147
 3146SOL    HW220118   9.932   9.062   2.237
 3147SOL     OW20119   2.161   5.752   1.014
 3147SOL    HW120120   2.062   5.747   1.006
 3147SOL    HW220121   2.204   5.735   0.925
 3148SOL     OW20122   4.183   8.732   1.463
 3148SOL    HW120123   4.178   8.830   1.443
 3148SOL    HW220124   4.232   8.686   1.390
 3149SOL     OW20125   1.617   5.544   1.673
 3149SOL    HW120126   1.661   5.469   1.623
 3149SOL    HW220127   1.653   5.547   1.767
 3150SOL     OW20128   0.538   3.986   1.174
 3150SOL    HW120129   0.590   3.919   1.120
 3150SOL    HW220130   0.457   3.942   1.213
 3151SOL     OW20131   7.491   0.776   2.441
 3151SOL    HW120132   7.568   0.773   2.505
 3151SOL    HW220133   7.467   0.871   2.423
 3152SOL     OW20134   9.126   3.489   0.448
 3152SOL    HW120135   9.207   3.542   0.473
 3152SOL    HW220136   9.154   3.397   0.421
 3153SOL     OW20137   8.990   1.002   0.329
 3153SOL    HW120138   9.023   0.911   0.355
 3153SOL    HW220139   8.977   1.006   0.230
 3154SOL     OW20140   4.912   5.176   0.977
 3154SOL    HW120141   4.818   5.174   1.011
 3154SOL    HW220142   4.935   5.269   0.947
 3155SOL     OW20143   4.394   1.591   3.788
 3155SOL    HW120144   4.398   1.686   3.817
 3155SOL    HW220145   4.330   1.583   3.711
 3156SOL     OW20146   5.484   8.123   3.721
 3156SOL    HW120147   5.424   8.179   3.664
 3156SOL    HW220148   5.495   8.032   3.680
 3157SOL     OW20149   5.618   0.157   4.096
 3157SOL    HW120150   5.676   0.239   4.092
 3157SOL    HW220151   5.549   0.162   4.025
 3158SOL     OW20152   2.893   4.697   0.279
 3158SOL    HW120153   2.811   4.673   0.331
 3158SOL    HW220154   2.868   4.752   0.200
 3159SOL     OW20155   8.226   6.838   2.453
 3159SOL    HW120156   8.173   6.921   2.470
 3159SOL    HW220157   8.184   6.786   2.378
 3160SOL     OW20158   1.228   9.654   0.324
 3160SOL    HW120159   1.264   9.722   0.388
 3160SOL    HW220160   1.240   9.562   0.363
 3161SOL     OW20161   6.545   7.946   3.250
 3161SOL    HW120162   6.562   7.858   3.295
 3161SOL    HW220163   6.629   8.000   3.249
 3162SOL     OW20164   2.990   5.067   4.286
 3162SOL    HW120165   3.053   5.136   4.323
 3162SOL    HW220166   3.043   4.993   4.244
 3163SOL     OW20167   7.735   9.867   0.523
 3163SOL    HW120168   7.680   9.900   0.600
 3163SOL    HW220169   7.823   9.914   0.523
 3164SOL     OW20170   7.846   8.848   2.341
 3164SOL    HW120171   7.935   8.802   2.341
 3164SOL    HW220172   7.858   8.944   2.313
 3165SOL     OW20173   1.005   2.520   3.843
 3165SOL    HW120174   1.102   2.497   3.844
 3165SOL    HW220175   0.962   2.478   3.763
 3166SOL     OW20176   0.699   7.841   2.761
 3166SOL    HW120177   0.611   7.815   2.801
 3166SOL    HW220178   0.712   7.940   2.770
 3167SOL     OW20179   0.757   8.624   0.471
 3167SOL    HW120180   0.796   8.540   0.432
 3167SOL    HW220181   0.757   8.696   0.402
 3168SOL     OW20182   9.505   8.426   3.417
 3168SOL    HW120183   9.536   8.495   3.482
 3168SOL    HW220184   9.513   8.461   3.324
 3169SOL     OW20185   2.061   2.882   2.465
 3169SOL    HW120186   2.091   2.972   2.432
 3169SOL    HW220187   2.112   2.858   2.547
 3170SOL     OW20188   2.523   7.459   2.600
 3170SOL    HW120189   2.567   7.423   2.518
 3170SOL    HW220190   2.529   7.392   2.673
 3171SOL     OW20191   8.977   3.164   4.345
 3171SOL    HW120192   8.933   3.090   4.294
 3171SOL    HW220193   9.077   3.157   4.334
 3172SOL     OW20194   2.526   7.256   1.391
 3172SOL    HW120195   2.579   7.187   1.439
 3172SOL    HW220196   2.429   7.246   1.415
 3173SOL     OW20197   1.255   7.779   4.136
 3173SOL    HW120198   1.262   7.765   4.037
 3173SOL    HW220199   1.338   7.823   4.169
 3174SOL     OW20200   7.469   2.043   2.491
 3174SOL    HW120201   7.517   1.972   2.543
 3174SOL    HW220202   7.469   2.128   2.544
 3175SOL     OW20203   7.326   7.716   3.859
 3175SOL    HW120204   7.376   7.631   3.878
 3175SOL    HW220205   7.249   7.696   3.798
 3176SOL     OW20206   0.556   4.313   1.454
 3176SOL    HW120207   0.486   4.342   1.389
 3176SOL    HW220208   0.632   4.378   1.451
 3177SOL     OW20209   5.964   7.515   2.481
 3177SOL    HW120210   6.010   7.546   2.564
 3177SOL    HW220211   5.990   7.420   2.461
 3178SOL     OW20212   6.013   8.163   3.681
 3178SOL    HW120213   5.955   8.242   3.660
 3178SOL    HW220214   6.106   8.180   3.648
 3179SOL     OW20215   4.595   8.120   1.851
 3179SOL    HW120216   4.644   8.048   1.900
 3179SOL    HW220217   4.619   8.118   1.755
 3180SOL     OW20218   2.677   6.506   1.561
 3180SOL    HW120219   2.634   6.436   1.505
 3180SOL    HW220220   2.607   6.564   1.602
 3181SOL     OW20221   8.436   9.274   2.273
 3181SOL    HW120222   8.485   9.188   2.262
 3181SOL    HW220223   8.476   9.343   2.212
 3182SOL     OW20224   3.358   9.304   4.131
 3182SOL    HW120225   3.392   9.301   4.225
 3182SOL    HW220226   3.272   9.255   4.125
 3183SOL     OW20227   2.405   3.949   0.249
 3183SOL    HW120228   2.350   3.964   0.331
 3183SOL    HW220229   2.497   3.986   0.264
 3184SOL     OW20230   0.393   7.958   4.250
 3184SOL    HW120231   0.339   8.041   4.233
 3184SOL    HW220232   0.487   7.984   4.271
 3185SOL     OW20233   8.328   4.382   0.363
 3185SOL    HW120234   8.385   4.301   0.375
 3185SOL    HW220235   8.233   4.354   0.347
 3186SOL     OW20236   7.324   9.871   3.006
 3186SOL    HW120237   7.307   9.886   3.103
 3186SOL    HW220238   7.365   9.780   2.994
 3187SOL     OW20239   1.590   7.459   0.627
 3187SOL    HW120240   1.548   7.431   0.541
 3187SOL    HW220241   1.536   7.532   0.669
 3188SOL     OW20242   3.349   2.512   0.446
 3188SOL    HW120243   3.264   2.549   0.409
 3188SOL    HW220244   3.333   2.418   0.478
 3189SOL     OW20245   3.177   7.042   3.303
 3189SOL    HW120246   3.203   6.975   3.233
 3189SOL    HW220247   3.223   7.128   3.286
 3190SOL     OW20248   8.283   5.805   3.424
 3190SOL    HW120249   8.228   5.836   3.347
 3190SOL    HW220250   8.317   5.885   3.474
 3191SOL     OW20251   1.198   7.936   0.804
 3191SOL    HW120252   1.139   8.007   0.765
 3191SOL    HW220253   1.150   7.849   0.805
 3192SOL     OW20254   5.853   9.709   2.450
 3192SOL    HW120255   5.808   9.654   2.521
 3192SOL    HW220256   5.921   9.769   2.492
 3193SOL     OW20257   9.898   4.936   3.399
 3193SOL    HW120258   9.873   4.921   3.495
 3193SOL    HW220259   9.902   4.848   3.352
 3194SOL     OW20260   3.054   7.401   1.143
 3194SOL    HW120261   3.025   7.305   1.140
 3194SOL    HW220262   3.154   7.405   1.145
 3195SOL     OW20263   6.412   7.248   2.718
 3195SOL    HW120264   6.420   7.180   2.645
 3195SOL    HW220265   6.474   7.325   2.699
 3196SOL     OW20266   2.480   8.550   1.380
 3196SOL    HW120267   2.514   8.590   1.295
 3196SOL    HW220268   2.540   8.575   1.456
 3197SOL     OW20269   1.850   9.139   4.308
 3197SOL    HW120270   1.830   9.047   4.273
 3197SOL    HW220271   1.947   9.158   4.294
 3198SOL     OW20272   2.586   5.981   2.086
 3198SOL    HW120273   2.557   5.943   2.174
 3198SOL    HW220274   2.685   5.996   2.087
 3199SOL     OW20275   2.213   2.885   0.166
 3199SOL    HW120276   2.136   2.826   0.141
 3199SOL    HW220277   2.268   2.840   0.236
 3200SOL     OW20278   1.459   3.354   1.583
 3200SOL    HW120279   1.381   3.397   1.629
 3200SOL    HW220280   1.452   3.369   1.484
 3201SOL     OW20281   8.385   0.649   1.110
 3201SOL    HW120282   8.422   0.705   1.184
 3201SOL    HW220283   8.345   0.708   1.040
 3202SOL     OW20284   1.807   9.519   4.120
 3202SOL    HW120285   1.778   9.473   4.204
 3202SOL    HW220286   1.808   9.452   4.045
 3203SOL     OW20287   3.454   9.515   3.499
 3203SOL    HW120288   3.524   9.584   3.482
 3203SOL    HW220289   3.422   9.479   3.411
 3204SOL     OW20290   9.214   2.400   0.395
 3204SOL    HW120291   9.195   2.335   0.322
 3204SOL    HW220292   9.137   2.463   0.406
 3205SOL     OW20293   0.405   2.144   3.957
 3205SOL    HW120294   0.395   2.044   3.954
 3205SOL    HW220295   0.326   2.184   4.003
 3206SOL     OW20296   6.284   0.249   2.518
 3206SOL    HW120297   6.335   0.286   2.597
 3206SOL    HW220298   6.316   0.156   2.500
 3207SOL     OW20299   7.909   8.178   3.328
 3207SOL    HW120300   7.870   8.118   3.398
 3207SOL    HW220301   7.873   8.270   3.340
 3208SOL     OW20302   4.597   1.726   2.900
 3208SOL    HW120303   4.564   1.739   2.806
 3208SOL    HW220304   4.526   1.683   2.955
 3209SOL     OW20305   7.980   4.867   3.304
 3209SOL    HW120306   7.883   4.851   3.284
 3209SOL    HW220307   8.011   4.948   3.254
 3210SOL     OW20308   1.313   4.069   1.039
 3210SOL    HW120309   1.296   3.979   0.998
 3210SOL    HW220310   1.254   4.137   0.995
 3211SOL     OW20311   0.179   0.154   1.519
 3211SOL    HW120312   0.104   0.149   1.584
 3211SOL    HW220313   0.250   0.216   1.554
 3212SOL     OW20314   8.044   7.965   2.966
 3212SOL    HW120315   8.110   7.966   2.890
 3212SOL    HW220316   8.060   8.045   3.024
 3213SOL     OW20317   5.819   1.373   3.031
 3213SOL    HW120318   5.782   1.288   2.994
 3213SOL    HW220319   5.816   1.443   2.959
 3214SOL     OW20320   1.143   7.988   0.214
 3214SOL    HW120321   1.172   8.016   0.306
 3214SOL    HW220322   1.068   8.047   0.183
 3215SOL     OW20323   4.283   9.481   0.756
 3215SOL    HW120324   4.228   9.542   0.699
 3215SOL    HW220325   4.222   9.425   0.813
 3216SOL     OW20326   4.006   7.508   3.362
 3216SOL    HW120327   4.014   7.449   3.442
 3216SOL    HW220328   4.017   7.603   3.390
 3217SOL     OW20329   7.548   0.257   0.094
 3217SOL    HW120330   7.638   0.212   0.093
 3217SOL    HW220331   7.554   0.339   0.150
 3218SOL     OW20332   2.118   5.055   0.622
 3218SOL    HW120333   2.050   5.060   0.548
 3218SOL    HW220334   2.106   4.969   0.671
 3219SOL     OW20335   8.079   3.626   3.540
 3219SOL    HW120336   8.067   3.555   3.609
 3219SOL    HW220337   8.059   3.589   3.449
 3220SOL     OW20338   3.175   3.444   3.483
 3220SOL    HW120339   3.244   3.431   3.553
 3220SOL    HW220340   3.150   3.355   3.444
 3221SOL     OW20341   8.451   2.001   0.285
 3221SOL    HW120342   8.507   2.039   0.211
 3221SOL    HW220343   8.510   1.952   0.349
 3222SOL     OW20344   0.325   5.823   4.196
 3222SOL    HW120345   0.349   5.778   4.110
 3222SOL    HW220346   0.253   5.891   4.181
 3223SOL     OW20347   2.222   1.381   0.352
 3223SOL    HW120348   2.157   1.457   0.363
 3223SOL    HW220349   2.308   1.417   0.316
 3224SOL     OW20350   1.789   5.501   3.516
 3224SOL    HW120351   1.818   5.452   3.434
 3224SOL    HW220352   1.706   5.553   3.496
 3225SOL     OW20353   4.663   1.229   1.805
 3225SOL    HW120354   4.625   1.317   1.779
 3225SOL    HW220355   4.588   1.166   1.827
 3226SOL     OW20356   8.922   7.020   2.154
 3226SOL    HW120357   8.997   7.084   2.138
 3226SOL    HW220358   8.859   7.059   2.222
 3227SOL     OW20359   1.493   2.813   1.763
 3227SOL    HW120360   1.431   2.752   1.715
 3227SOL    HW220361   1.486   2.906   1.726
 3228SOL     OW20362   8.615   0.534   3.440
 3228SOL    HW120363   8.559   0.535   3.357
 3228SOL    HW220364   8.649   0.442   3.457
 3229SOL     OW20365   2.533   3.055   0.250
 3229SOL    HW120366   2.528   3.150   0.220
 3229SOL    HW220367   2.542   2.995   0.171
 3230SOL     OW20368   4.649   9.729   1.034
 3230SOL    HW120369   4.710   9.806   1.050
 3230SOL    HW220370   4.685   9.648   1.082
 3231SOL     OW20371   5.477   6.822   3.239
 3231SOL    HW120372   5.561   6.828   3.185
 3231SOL    HW220373   5.402   6.867   3.189
 3232SOL     OW20374   1.514   3.190   0.675
 3232SOL    HW120375   1.545   3.175   0.581
 3232SOL    HW220376   1.495   3.288   0.688
 3233SOL     OW20377   1.378   7.696   3.498
 3233SOL    HW120378   1.331   7.770   3.546
 3233SOL    HW220379   1.356   7.609   3.541
 3234SOL     OW20380   4.690   8.446   1.296
 3234SOL    HW120381   4.727   8.483   1.210
 3234SOL    HW220382   4.598   8.412   1.281
 3235SOL     OW20383   3.028   6.233   0.159
 3235SOL    HW120384   3.083   6.316   0.157
 3235SOL    HW220385   3.062   6.172   0.231
 3236SOL     OW20386   9.665   1.806   1.168
 3236SOL    HW120387   9.710   1.842   1.249
 3236SOL    HW220388   9.706   1.847   1.086
 3237SOL     OW20389   3.624   2.284   0.781
 3237SOL    HW120390   3.615   2.378   0.814
 3237SOL    HW220391   3.571   2.223   0.839
 3238SOL     OW20392   1.169   1.989   1.923
 3238SOL    HW120393   1.247   2.015   1.866
 3238SOL    HW220394   1.195   1.992   2.019
 3239SOL     OW20395   4.298   9.325   4.367
 3239SOL    HW120396   4.396   9.341   4.377
 3239SOL    HW220397   4.271   9.246   4.422
 3240SOL     OW20398   0.566   6.964   0.920
 3240SOL    HW120399   0.589   6.989   0.826
 3240SOL    HW220400   0.516   7.039   0.963
 3241SOL     OW20401   3.115   5.716   0.984
 3241SOL    HW120402   3.055   5.794   0.969
 3241SOL    HW220403   3.062   5.632   0.982
 3242SOL     OW20404   2.374   2.592   1.725
 3242SOL    HW120405   2.406   2.610   1.632
 3242SOL    HW220406   2.384   2.674   1.780
 3243SOL     OW20407   2.549   9.806   0.216
 3243SOL    HW120408   2.547   9.899   0.253
 3243SOL    HW220409   2.637   9.790   0.172
 3244SOL     OW20410   0.321   5.175   2.135
 3244SOL    HW120411   0.243   5.204   2.189
 3244SOL    HW220412   0.367   5.099   2.180
 3245SOL     OW20413   9.583   1.163   4.349
 3245SOL    HW120414   9.524   1.243   4.339
 3245SOL    HW220415   9.526   1.080   4.345
 3246SOL     OW20416   1.607   3.880   2.356
 3246SOL    HW120417   1.673   3.834   2.297
 3246SOL    HW220418   1.554   3.945   2.303
 3247SOL     OW20419   8.999   7.187   3.631
 3247SOL    HW120420   8.973   7.276   3.592
 3247SOL    HW220421   8.949   7.114   3.585
 3248SOL     OW20422   8.093   5.751   2.247
 3248SOL    HW120423   8.172   5.729   2.189
 3248SOL    HW220424   8.027   5.675   2.243
 3249SOL     OW20425   9.848   9.459   0.227
 3249SOL    HW120426   9.868   9.395   0.153
 3249SOL    HW220427   9.848   9.410   0.315
 3250SOL     OW20428   1.669   9.934   2.906
 3250SOL    HW120429   1.601   9.995   2.864
 3250SOL    HW220430   1.622   9.868   2.965
 3251SOL     OW20431   2.512   9.414   0.519
 3251SOL    HW120432   2.592   9.369   0.479
 3251SOL    HW220433   2.477   9.483   0.456
 3252SOL     OW20434   7.524   7.903   1.322
 3252SOL    HW120435   7.459   7.877   1.393
 3252SOL    HW220436   7.616   7.879   1.350
 3253SOL     OW20437   1.728   7.102   1.114
 3253SOL    HW120438   1.765   7.128   1.024
 3253SOL    HW220439   1.645   7.154   1.133
 3254SOL     OW20440   5.504   9.975   1.178
 3254SOL    HW120441   5.598   9.943   1.191
 3254SOL    HW220442   5.454   9.966   1.265
 3255SOL     OW20443   6.146   0.442   3.904
 3255SOL    HW120444   6.153   0.378   3.980
 3255SOL    HW220445   6.167   0.395   3.818
 3256SOL     OW20446   6.473   8.390   1.562
 3256SOL    HW120447   6.479   8.462   1.493
 3256SOL    HW220448   6.406   8.416   1.632
 3257SOL     OW20449   8.333   7.860   3.918
 3257SOL    HW120450   8.244   7.876   3.960
 3257SOL    HW220451   8.368   7.771   3.946
 3258SOL     OW20452   0.230   6.585   3.629
 3258SOL    HW120453   0.138   6.585   3.591
 3258SOL    HW220454   0.224   6.577   3.729
 3259SOL     OW20455   5.612   8.300   3.036
 3259SOL    HW120456   5.661   8.364   3.096
 3259SOL    HW220457   5.674   8.225   3.011
 3260SOL     OW20458   3.604   2.173   1.935
 3260SOL    HW120459   3.514   2.150   1.972
 3260SOL    HW220460   3.598   2.182   1.836
 3261SOL     OW20461   7.678   9.937   2.875
 3261SOL    HW120462   7.645   9.988   2.955
 3261SOL    HW220463   7.602   9.893   2.829
 3262SOL     OW20464   2.201   3.779   1.614
 3262SOL    HW120465   2.233   3.713   1.681
 3262SOL    HW220466   2.110   3.811   1.640
 3263SOL     OW20467   7.325   1.486   2.494
 3263SOL    HW120468   7.366   1.549   2.427
 3263SOL    HW220469   7.288   1.406   2.446
 3264SOL     OW20470   7.672   1.030   3.943
 3264SOL    HW120471   7.690   1.127   3.960
 3264SOL    HW220472   7.694   0.977   4.025
 3265SOL     OW20473   3.327   8.122   2.565
 3265SOL    HW120474   3.315   8.027   2.594
 3265SOL    HW220475   3.392   8.167   2.626
 3266SOL     OW20476   2.184   8.965   0.889
 3266SOL    HW120477   2.099   8.919   0.912
 3266SOL    HW220478   2.165   9.059   0.861
 3267SOL     OW20479   3.468   1.594   2.642
 3267SOL    HW120480   3.538   1.538   2.687
 3267SOL    HW220481   3.399   1.534   2.601
 3268SOL     OW20482   9.862   2.554   1.162
 3268SOL    HW120483   9.787   2.503   1.205
 3268SOL    HW220484   9.949   2.509   1.182
 3269SOL     OW20485   1.965   1.285   1.266
 3269SOL    HW120486   1.895   1.281   1.193
 3269SOL    HW220487   1.932   1.343   1.340
 3270SOL     OW20488   3.700   6.049   1.504
 3270SOL    HW120489   3.629   6.100   1.553
 3270SOL    HW220490   3.702   6.078   1.408
 3271SOL     OW20491   0.654   9.762   3.754
 3271SOL    HW120492   0.684   9.769   3.658
 3271SOL    HW220493   0.616   9.850   3.782
 3272SOL     OW20494   2.872   0.020   1.530
 3272SOL    HW120495   2.797   0.007   1.465
 3272SOL    HW220496   2.955   9.976   1.495
 3273SOL     OW20497   3.372   5.842   2.214
 3273SOL    HW120498   3.456   5.808   2.171
 3273SOL    HW220499   3.386   5.853   2.312
 3274SOL     OW20500   4.500   3.105   3.447
 3274SOL    HW120501   4.486   3.140   3.354
 3274SOL    HW220502   4.573   3.036   3.445
 3275SOL     OW20503   1.180   3.358   1.395
 3275SOL    HW120504   1.271   3.366   1.355
 3275SOL    HW220505   1.153   3.445   1.435
 3276SOL     OW20506   8.140   5.191   1.236
 3276SOL    HW120507   8.212   5.202   1.305
 3276SOL    HW220508   8.069   5.131   1.270
 3277SOL     OW20509   2.263   7.281   1.470
 3277SOL    HW120510   2.272   7.263   1.568
 3277SOL    HW220511   2.273   7.379   1.452
 3278SOL     OW20512   1.589   5.339   0.806
 3278SOL    HW120513   1.565   5.420   0.754
 3278SOL    HW220514   1.676   5.354   0.853
 3279SOL     OW20515   5.994   0.924   3.836
 3279SOL    HW120516   5.908   0.955   3.796
 3279SOL    HW220517   6.062   0.997   3.833
 3280SOL     OW20518   8.426   3.658   3.695
 3280SOL    HW120519   8.520   3.644   3.726
 3280SOL    HW220520   8.373   3.574   3.706
 3281SOL     OW20521   9.726   4.558   1.082
 3281SOL    HW120522   9.764   4.523   0.996
 3281SOL    HW220523   9.648   4.501   1.108
 3282SOL     OW20524   2.351   4.568   3.538
 3282SOL    HW120525   2.375   4.640   3.473
 3282SOL    HW220526   2.259   4.535   3.519
 3283SOL     OW20527   3.300   7.861   2.646
 3283SOL    HW120528   3.266   7.825   2.559
 3283SOL    HW220529   3.391   7.822   2.664
 3284SOL     OW20530   0.754   1.599   1.024
 3284SOL    HW120531   0.773   1.529   0.955
 3284SOL    HW220532   0.830   1.664   1.028
 3285SOL     OW20533   9.388   5.772   0.628
 3285SOL    HW120534   9.377   5.852   0.688
 3285SOL    HW220535   9.300   5.752   0.584
 3286SOL     OW20536   4.287   3.230   2.073
 3286SOL    HW120537   4.204   3.175   2.057
 3286SOL    HW220538   4.265   3.327   2.062
 3287SOL     OW20539   8.704   9.435   2.434
 3287SOL    HW120540   8.768   9.473   2.502
 3287SOL    HW220541   8.617   9.484   2.441
 3288SOL     OW20542   2.121   6.327   0.074
 3288SOL    HW120543   2.079   6.303   0.162
 3288SOL    HW220544   2.056   6.383   0.021
 3289SOL     OW20545   5.112   0.438   1.663
 3289SOL    HW120546   5.208   0.410   1.662
 3289SOL    HW220547   5.071   0.417   1.575
 3290SOL     OW20548   9.575   4.377   3.078
 3290SOL    HW120549   9.655   4.342   3.029
 3290SOL    HW220550   9.545   4.309   3.146
 3291SOL     OW20551   5.718   8.477   3.909
 3291SOL    HW120552   5.785   8.478   3.983
 3291SOL    HW220553   5.716   8.386   3.867
 3292SOL     OW20554   3.069   1.451   4.275
 3292SOL    HW120555   3.068   1.351   4.278
 3292SOL    HW220556   2.976   1.485   4.263
 3293SOL     OW20557   8.583   8.152   1.714
 3293SOL    HW120558   8.600   8.098   1.631
 3293SOL    HW220559   8.662   8.146   1.775
 3294SOL     OW20560   2.575   5.815   0.036
 3294SOL    HW120561   2.549   5.719   0.020
 3294SOL    HW220562   2.570   5.865   5.583
 3295SOL     OW20563   0.623   7.377   0.970
 3295SOL    HW120564   0.560   7.437   0.921
 3295SOL    HW220565   0.574   7.295   1.000
 3296SOL     OW20566   0.872   5.353   2.243
 3296SOL    HW120567   0.851   5.447   2.268
 3296SOL    HW220568   0.861   5.342   2.144
 3297SOL     OW20569   5.741   8.864   3.095
 3297SOL    HW120570   5.749   8.855   3.194
 3297SOL    HW220571   5.830   8.846   3.052
 3298SOL     OW20572   8.389   4.462   0.787
 3298SOL    HW120573   8.393   4.509   0.699
 3298SOL    HW220574   8.410   4.526   0.860
 3299SOL     OW20575   8.084   3.855   3.382
 3299SOL    HW120576   8.083   3.786   3.454
 3299SOL    HW220577   8.082   3.946   3.422
 3300SOL     OW20578   0.989   5.181   1.853
 3300SOL    HW120579   0.953   5.091   1.877
 3300SOL    HW220580   0.932   5.252   1.896
 3301SOL     OW20581   2.550   8.491   0.915
 3301SOL    HW120582   2.451   8.493   0.897
 3301SOL    HW220583   2.599   8.504   0.829
 3302SOL     OW20584   9.710   7.216   4.239
 3302SOL    HW120585   9.663   7.231   4.326
 3302SOL    HW220586   9.809   7.224   4.254
 3303SOL     OW20587   0.326   1.797   1.647
 3303SOL    HW120588   0.413   1.843   1.661
 3303SOL    HW220589   0.300   1.748   1.730
 3304SOL     OW20590   9.561   5.646   0.189
 3304SOL    HW120591   9.566   5.687   0.280
 3304SOL    HW220592   9.585   5.549   0.195
 3305SOL     OW20593   0.445   1.399   0.823
 3305SOL    HW120594   0.495   1.313   0.823
 3305SOL    HW220595   0.448   1.440   0.732
 3306SOL     OW20596   9.032   0.517   3.320
 3306SOL    HW120597   8.995   0.521   3.228
 3306SOL    HW220598   9.019   0.606   3.365
 3307SOL     OW20599   7.000   0.060   0.537
 3307SOL    HW120600   7.031   9.965   0.533
 3307SOL    HW220601   7.068   0.115   0.584
 3308SOL     OW20602   4.776   3.260   1.584
 3308SOL    HW120603   4.856   3.272   1.642
 3308SOL    HW220604   4.716   3.339   1.593
 3309SOL     OW20605   2.691   8.683   3.420
 3309SOL    HW120606   2.644   8.771   3.426
 3309SOL    HW220607   2.641   8.623   3.357
 3310SOL     OW20608   9.281   8.605   2.317
 3310SOL    HW120609   9.216   8.621   2.243
 3310SOL    HW220610   9.265   8.514   2.356
 3311SOL     OW20611   7.585   0.237   1.904
 3311SOL    HW120612   7.671   0.280   1.929
 3311SOL    HW220613   7.532   0.299   1.846
 3312SOL     OW20614   1.523   7.680   2.782
 3312SOL    HW120615   1.591   7.634   2.839
 3312SOL    HW220616   1.510   7.629   2.697
 3313SOL     OW20617   7.770   6.463   3.962
 3313SOL    HW120618   7.696   6.445   4.027
 3313SOL    HW220619   7.730   6.489   3.873
 3314SOL     OW20620   7.864   2.945   1.994
 3314SOL    HW120621   7.769   2.933   2.021
 3314SOL    HW220622   7.909   3.007   2.059
 3315SOL     OW20623   3.061   5.758   4.317
 3315SOL    HW120624   3.107   5.736   4.231
 3315SOL    HW220625   3.061   5.677   4.376
 3316SOL     OW20626   8.981   5.617   1.714
 3316SOL    HW120627   9.021   5.677   1.645
 3316SOL    HW220628   8.937   5.672   1.785
 3317SOL     OW20629   0.547   4.393   0.210
 3317SOL    HW120630   0.621   4.333   0.179
 3317SOL    HW220631   0.565   4.487   0.180
 3318SOL     OW20632   8.766   1.186   4.065
 3318SOL    HW120633   8.732   1.196   3.972
 3318SOL    HW220634   8.713   1.115   4.112
 3319SOL     OW20635   9.785   7.940   4.204
 3319SOL    HW120636   9.824   8.024   4.166
 3319SOL    HW220637   9.685   7.948   4.205
 3320SOL     OW20638   7.908   8.983   2.002
 3320SOL    HW120639   7.923   9.022   2.093
 3320SOL    HW220640   7.959   8.898   1.993
 3321SOL     OW20641   3.259   7.381   3.908
 3321SOL    HW120642   3.306   7.340   3.830
 3321SOL    HW220643   3.188   7.443   3.875
 3322SOL     OW20644   3.305   9.335   2.620
 3322SOL    HW120645   3.209   9.319   2.641
 3322SOL    HW220646   3.313   9.402   2.547
 3323SOL     OW20647   7.419   1.663   2.305
 3323SOL    HW120648   7.370   1.747   2.330
 3323SOL    HW220649   7.439   1.664   2.207
 3324SOL     OW20650   5.008   6.775   3.206
 3324SOL    HW120651   4.935   6.842   3.195
 3324SOL    HW220652   4.999   6.730   3.294
 3325SOL     OW20653   1.813   6.152   3.587
 3325SOL    HW120654   1.758   6.225   3.546
 3325SOL    HW220655   1.792   6.146   3.685
 3326SOL     OW20656   9.918   5.221   0.990
 3326SOL    HW120657   9.927   5.244   1.087
 3326SOL    HW220658   9.956   5.129   0.975
 3327SOL     OW20659   1.963   6.173   2.597
 3327SOL    HW120660   1.956   6.196   2.500
 3327SOL    HW220661   1.874   6.185   2.641
 3328SOL     OW20662   2.656   6.376   2.310
 3328SOL    HW120663   2.648   6.417   2.220
 3328SOL    HW220664   2.684   6.446   2.377
 3329SOL     OW20665   0.736   6.288   3.389
 3329SOL    HW120666   0.662   6.234   3.350
 3329SOL    HW220667   0.817   6.230   3.401
 3330SOL     OW20668   0.955   4.625   0.115
 3330SOL    HW120669   1.051   4.608   0.137
 3330SOL    HW220670   0.950   4.687   0.037
 3331SOL     OW20671   5.236   1.339   2.504
 3331SOL    HW120672   5.260   1.437   2.510
 3331SOL    HW220673   5.200   1.319   2.414
 3332SOL     OW20674   4.441   9.706   3.419
 3332SOL    HW120675   4.388   9.761   3.354
 3332SOL    HW220676   4.384   9.630   3.451
 3333SOL     OW20677   0.053   1.955   3.644
 3333SOL    HW120678   9.997   1.947   3.727
 3333SOL    HW220679   0.146   1.927   3.665
 3334SOL     OW20680   0.069   8.155   0.237
 3334SOL    HW120681   0.009   8.210   0.296
 3334SOL    HW220682   0.137   8.214   0.194
 3335SOL     OW20683   0.633   5.050   2.067
 3335SOL    HW120684   0.575   5.002   2.132
 3335SOL    HW220685   0.623   5.148   2.079
 3336SOL     OW20686   9.546   3.209   1.915
 3336SOL    HW120687   9.546   3.275   1.840
 3336SOL    HW220688   9.583   3.122   1.884
 3337SOL     OW20689   0.532   0.524   1.731
 3337SOL    HW120690   0.609   0.558   1.677
 3337SOL    HW220691   0.567   0.467   1.806
 3338SOL     OW20692   0.322   7.018   3.457
 3338SOL    HW120693   0.372   7.010   3.543
 3338SOL    HW220694   0.226   6.993   3.471
 3339SOL     OW20695   9.659   8.299   2.741
 3339SOL    HW120696   9.695   8.347   2.821
 3339SOL    HW220697   9.734   8.258   2.690
 3340SOL     OW20698   9.684   2.521   2.400
 3340SOL    HW120699   9.635   2.453   2.455
 3340SOL    HW220700   9.770   2.481   2.367
 3341SOL     OW20701   3.874   2.142   1.693
 3341SOL    HW120702   3.886   2.114   1.788
 3341SOL    HW220703   3.932   2.086   1.634
 3342SOL     OW20704   2.687   8.904   2.104
 3342SOL    HW120705   2.751   8.908   2.027
 3342SOL    HW220706   2.737   8.898   2.190
 3343SOL     OW20707   9.266   4.998   2.221
 3343SOL    HW120708   9.214   4.938   2.282
 3343SOL    HW220709   9.349   5.028   2.269
 3344SOL     OW20710   3.465   1.659   1.428
 3344SOL    HW120711   3.511   1.702   1.506
 3344SOL    HW220712   3.499   1.565   1.418
 3345SOL     OW20713   2.130   6.588   0.958
 3345SOL    HW120714   2.087   6.498   0.950
 3345SOL    HW220715   2.119   6.638   0.873
 3346SOL     OW20716   5.005   9.497   4.067
 3346SOL    HW120717   5.006   9.411   4.016
 3346SOL    HW220718   4.957   9.567   4.014
 3347SOL     OW20719   3.907   8.510   3.810
 3347SOL    HW120720   3.948   8.593   3.850
 3347SOL    HW220721   3.973   8.435   3.814
 3348SOL     OW20722   6.103   7.295   2.205
 3348SOL    HW120723   6.055   7.279   2.292
 3348SOL    HW220724   6.040   7.278   2.129
 3349SOL     OW20725   0.495   2.918   3.048
 3349SOL    HW120726   0.471   2.905   3.145
 3349SOL    HW220727   0.579   2.970   3.041
 3350SOL     OW20728   0.889   2.387   2.383
 3350SOL    HW120729   0.913   2.294   2.355
 3350SOL    HW220730   0.939   2.411   2.466
 3351SOL     OW20731   6.535   8.554   4.078
 3351SOL    HW120732   6.467   8.606   4.027
 3351SOL    HW220733   6.549   8.596   4.168
 3352SOL     OW20734   2.023   5.779   3.043
 3352SOL    HW120735   2.112   5.791   2.999
 3352SOL    HW220736   1.958   5.742   2.977
 3353SOL     OW20737   2.217   8.383   2.240
 3353SOL    HW120738   2.176   8.304   2.286
 3353SOL    HW220739   2.213   8.370   2.141
 3354SOL     OW20740   9.410   2.039   1.125
 3354SOL    HW120741   9.335   2.099   1.154
 3354SOL    HW220742   9.401   1.951   1.170
 3355SOL     OW20743   1.795   1.740   2.552
 3355SOL    HW120744   1.767   1.692   2.635
 3355SOL    HW220745   1.873   1.799   2.572
 3356SOL     OW20746   6.764   0.365   2.187
 3356SOL    HW120747   6.772   0.346   2.285
 3356SOL    HW220748   6.761   0.278   2.137
 3357SOL     OW20749   8.067   0.332   3.102
 3357SOL    HW120750   8.069   0.266   3.027
 3357SOL    HW220751   7.985   0.389   3.095
 3358SOL     OW20752   0.968   3.307   1.227
 3358SOL    HW120753   1.044   3.323   1.288
 3358SOL    HW220754   0.956   3.208   1.213
 3359SOL     OW20755   0.754   3.155   4.183
 3359SOL    HW120756   0.818   3.138   4.259
 3359SOL    HW220757   0.696   3.074   4.170
 3360SOL     OW20758   0.047   7.571   2.627
 3360SOL    HW120759   0.002   7.627   2.696
 3360SOL    HW220760   0.026   7.475   2.644
 3361SOL     OW20761   2.417   9.374   1.370
 3361SOL    HW120762   2.483   9.415   1.308
 3361SOL    HW220763   2.419   9.274   1.359
 3362SOL     OW20764   9.142   4.371   4.074
 3362SOL    HW120765   9.070   4.344   4.010
 3362SOL    HW220766   9.146   4.471   4.079
 3363SOL     OW20767   3.848   9.893   0.820
 3363SOL    HW120768   3.820   9.927   0.910
 3363SOL    HW220769   3.925   9.947   0.787
 3364SOL     OW20770   6.045   8.222   3.352
 3364SOL    HW120771   6.087   8.204   3.263
 3364SOL    HW220772   6.115   8.219   3.423
 3365SOL     OW20773   4.010   8.385   0.904
 3365SOL    HW120774   3.951   8.432   0.838
 3365SOL    HW220775   3.975   8.399   0.996
 3366SOL     OW20776   3.298   9.168   2.984
 3366SOL    HW120777   3.287   9.098   3.055
 3366SOL    HW220778   3.211   9.183   2.938
 3367SOL     OW20779   4.513   1.455   1.732
 3367SOL    HW120780   4.522   1.514   1.651
 3367SOL    HW220781   4.444   1.386   1.715
 3368SOL     OW20782   7.302   1.492   1.167
 3368SOL    HW120783   7.247   1.408   1.172
 3368SOL    HW220784   7.280   1.541   1.083
 3369SOL     OW20785   9.639   2.343   1.926
 3369SOL    HW120786   9.568   2.380   1.985
 3369SOL    HW220787   9.677   2.416   1.870
 3370SOL     OW20788   9.074   4.967   1.877
 3370SOL    HW120789   9.044   4.908   1.952
 3370SOL    HW220790   9.171   4.989   1.889
 3371SOL     OW20791   0.972   6.798   2.960
 3371SOL    HW120792   0.888   6.763   3.001
 3371SOL    HW220793   1.002   6.737   2.887
 3372SOL     OW20794   2.300   6.624   1.853
 3372SOL    HW120795   2.323   6.566   1.932
 3372SOL    HW220796   2.378   6.628   1.791
 3373SOL     OW20797   1.715   9.418   1.321
 3373SOL    HW120798   1.725   9.460   1.411
 3373SOL    HW220799   1.804   9.414   1.276
 3374SOL     OW20800   8.612   2.528   0.612
 3374SOL    HW120801   8.585   2.603   0.552
 3374SOL    HW220802   8.572   2.542   0.702
 3375SOL     OW20803   3.358   8.567   2.275
 3375SOL    HW120804   3.301   8.532   2.350
 3375SOL    HW220805   3.380   8.663   2.292
 3376SOL     OW20806   3.074   9.806   0.055
 3376SOL    HW120807   3.119   9.887   0.094
 3376SOL    HW220808   3.059   9.820   5.591
 3377SOL     OW20809   8.278   7.328   2.121
 3377SOL    HW120810   8.285   7.421   2.085
 3377SOL    HW220811   8.265   7.263   2.046
 3378SOL     OW20812   9.701   3.152   0.463
 3378SOL    HW120813   9.757   3.234   0.451
 3378SOL    HW220814   9.655   3.156   0.552
 3379SOL     OW20815   1.226   0.489   0.022
 3379SOL    HW120816   1.212   0.440   0.108
 3379SOL    HW220817   1.241   0.586   0.040
 3380SOL     OW20818   0.903   7.534   4.201
 3380SOL    HW120819   1.002   7.533   4.189
 3380SOL    HW220820   0.861   7.473   4.134
 3381SOL     OW20821   3.485   4.084   0.645
 3381SOL    HW120822   3.510   4.006   0.588
 3381SOL    HW220823   3.391   4.112   0.626
 3382SOL     OW20824   2.388   3.909   0.710
 3382SOL    HW120825   2.417   3.962   0.790
 3382SOL    HW220826   2.312   3.849   0.736
 3383SOL     OW20827   8.032   2.267   2.678
 3383SOL    HW120828   8.052   2.169   2.670
 3383SOL    HW220829   7.933   2.280   2.681
 3384SOL     OW20830   4.543   8.929   2.698
 3384SOL    HW120831   4.558   8.995   2.625
 3384SOL    HW220832   4.454   8.946   2.741
 3385SOL     OW20833   9.619   7.657   2.169
 3385SOL    HW120834   9.586   7.669   2.263
 3385SOL    HW220835   9.681   7.579   2.166
 3386SOL     OW20836   1.260   0.470   0.526
 3386SOL    HW120837   1.329   0.543   0.520
 3386SOL    HW220838   1.304   0.387   0.559
 3387SOL     OW20839   3.888   2.280   0.888
 3387SOL    HW120840   3.819   2.281   0.816
 3387SOL    HW220841   3.844   2.262   0.976
 3388SOL     OW20842   0.381   7.873   2.373
 3388SOL    HW120843   0.422   7.959   2.404
 3388SOL    HW220844   0.330   7.831   2.449
 3389SOL     OW20845   9.643   2.158   1.221
 3389SOL    HW120846   9.641   2.140   1.319
 3389SOL    HW220847   9.565   2.113   1.178
 3390SOL     OW20848   4.460   1.063   1.914
 3390SOL    HW120849   4.369   1.034   1.885
 3390SOL    HW220850   4.499   0.996   1.976
 3391SOL     OW20851   3.670   8.498   3.948
 3391SOL    HW120852   3.635   8.407   3.971
 3391SOL    HW220853   3.753   8.489   3.893
 3392SOL     OW20854   2.690   4.169   1.014
 3392SOL    HW120855   2.751   4.187   0.937
 3392SOL    HW220856   2.680   4.252   1.069
 3393SOL     OW20857   2.010   6.845   1.316
 3393SOL    HW120858   2.065   6.926   1.296
 3393SOL    HW220859   1.944   6.866   1.388
 3394SOL     OW20860   8.303   7.577   2.008
 3394SOL    HW120861   8.275   7.640   2.080
 3394SOL    HW220862   8.292   7.620   1.919
 3395SOL     OW20863   8.434   1.260   3.961
 3395SOL    HW120864   8.382   1.344   3.945
 3395SOL    HW220865   8.372   1.188   3.993
 3396SOL     OW20866   0.659   0.375   2.915
 3396SOL    HW120867   0.712   0.309   2.968
 3396SOL    HW220868   0.656   0.346   2.819
 3397SOL     OW20869   3.510   7.617   1.424
 3397SOL    HW120870   3.484   7.713   1.435
 3397SOL    HW220871   3.608   7.610   1.408
 3398SOL     OW20872   9.530   2.454   3.705
 3398SOL    HW120873   9.568   2.409   3.625
 3398SOL    HW220874   9.536   2.553   3.695
 3399SOL     OW20875   1.660   6.545   0.410
 3399SOL    HW120876   1.696   6.461   0.369
 3399SOL    HW220877   1.629   6.607   0.338
 3400SOL     OW20878   4.751   3.387   0.844
 3400SOL    HW120879   4.760   3.437   0.758
 3400SOL    HW220880   4.726   3.292   0.825
 3401SOL     OW20881   3.182   8.636   1.158
 3401SOL    HW120882   3.100   8.682   1.123
 3401SOL    HW220883   3.188   8.648   1.257
 3402SOL     OW20884   0.855   6.360   2.521
 3402SOL    HW120885   0.829   6.435   2.460
 3402SOL    HW220886   0.923   6.302   2.475
 3403SOL     OW20887   5.242   1.184   2.726
 3403SOL    HW120888   5.338   1.159   2.743
 3403SOL    HW220889   5.236   1.239   2.643
 3404SOL     OW20890   7.797   5.794   2.835
 3404SOL    HW120891   7.728   5.856   2.872
 3404SOL    HW220892   7.795   5.796   2.735
 3405SOL     OW20893   9.966   2.398   2.806
 3405SOL    HW120894   0.030   2.348   2.864
 3405SOL    HW220895   9.932   2.339   2.733
 3406SOL     OW20896   4.062   3.748   2.916
 3406SOL    HW120897   4.134   3.799   2.963
 3406SOL    HW220898   4.097   3.659   2.887
 3407SOL     OW20899   3.263   9.725   3.889
 3407SOL    HW120900   3.271   9.666   3.969
 3407SOL    HW220901   3.264   9.669   3.806
 3408SOL     OW20902   0.810   8.591   3.490
 3408SOL    HW120903   0.862   8.565   3.571
 3408SOL    HW220904   0.841   8.679   3.457
 3409SOL     OW20905   5.816   9.599   3.073
 3409SOL    HW120906   5.767   9.525   3.026
 3409SOL    HW220907   5.855   9.660   3.004
 3410SOL     OW20908   1.636   9.717   4.018
 3410SOL    HW120909   1.700   9.664   4.073
 3410SOL    HW220910   1.567   9.758   4.077
 3411SOL     OW20911   9.939   7.918   2.561
 3411SOL    HW120912   9.961   7.954   2.471
 3411SOL    HW220913   9.874   7.843   2.552
 3412SOL     OW20914   0.188   7.945   1.764
 3412SOL    HW120915   0.267   8.006   1.760
 3412SOL    HW220916   0.161   7.918   1.672
 3413SOL     OW20917   1.421   8.454   1.299
 3413SOL    HW120918   1.438   8.360   1.269
 3413SOL    HW220919   1.330   8.483   1.269
 3414SOL     OW20920   9.409   1.101   2.791
 3414SOL    HW120921   9.480   1.096   2.861
 3414SOL    HW220922   9.324   1.135   2.832
 3415SOL     OW20923   5.984   0.673   1.952
 3415SOL    HW120924   5.914   0.616   1.995
 3415SOL    HW220925   6.009   0.748   2.013
 3416SOL     OW20926   2.054   5.583   1.372
 3416SOL    HW120927   1.965   5.602   1.329
 3416SOL    HW220928   2.118   5.550   1.303
 3417SOL     OW20929   1.516   6.232   0.246
 3417SOL    HW120930   1.610   6.262   0.261
 3417SOL    HW220931   1.506   6.137   0.276
 3418SOL     OW20932   9.453   8.020   0.618
 3418SOL    HW120933   9.397   8.088   0.665
 3418SOL    HW220934   9.415   8.001   0.528
 3419SOL     OW20935   6.183   0.209   1.465
 3419SOL    HW120936   6.153   0.272   1.536
 3419SOL    HW220937   6.236   0.134   1.506
 3420SOL     OW20938   9.022   0.042   4.124
 3420SOL    HW120939   9.001   0.127   4.173
 3420SOL    HW220940   9.101   9.998   4.167
 3421SOL     OW20941   1.234   0.398   2.903
 3421SOL    HW120942   1.210   0.363   2.813
 3421SOL    HW220943   1.185   0.346   2.973
 3422SOL     OW20944   4.117   2.793   2.368
 3422SOL    HW120945   4.206   2.758   2.339
 3422SOL    HW220946   4.046   2.761   2.304
 3423SOL     OW20947   7.867   9.551   4.286
 3423SOL    HW120948   7.853   9.650   4.290
 3423SOL    HW220949   7.878   9.522   4.191
 3424SOL     OW20950   1.918   1.789   4.026
 3424SOL    HW120951   1.960   1.700   4.008
 3424SOL    HW220952   1.839   1.802   3.966
 3425SOL     OW20953   2.003   3.196   2.670
 3425SOL    HW120954   1.917   3.246   2.661
 3425SOL    HW220955   2.078   3.251   2.633
 3426SOL     OW20956   9.933   2.986   4.324
 3426SOL    HW120957   9.893   3.065   4.278
 3426SOL    HW220958   9.882   2.904   4.300
 3427SOL     OW20959   9.229   5.885   3.538
 3427SOL    HW120960   9.317   5.927   3.560
 3427SOL    HW220961   9.235   5.786   3.552
 3428SOL     OW20962   5.877   7.357   4.093
 3428SOL    HW120963   5.781   7.330   4.101
 3428SOL    HW220964   5.884   7.456   4.088
 3429SOL     OW20965   8.383   2.412   3.503
 3429SOL    HW120966   8.308   2.362   3.546
 3429SOL    HW220967   8.415   2.483   3.565
 3430SOL     OW20968   7.199   8.219   3.647
 3430SOL    HW120969   7.132   8.293   3.640
 3430SOL    HW220970   7.153   8.137   3.682
 3431SOL     OW20971   3.151   3.152   0.453
 3431SOL    HW120972   3.171   3.132   0.549
 3431SOL    HW220973   3.219   3.217   0.418
 3432SOL     OW20974   5.161   8.848   3.078
 3432SOL    HW120975   5.191   8.781   3.010
 3432SOL    HW220976   5.091   8.907   3.038
 3433SOL     OW20977   0.545   0.607   3.377
 3433SOL    HW120978   0.587   0.689   3.340
 3433SOL    HW220979   0.556   0.531   3.313
 3434SOL     OW20980   9.064   2.562   4.280
 3434SOL    HW120981   9.150   2.581   4.231
 3434SOL    HW220982   9.078   2.576   4.378
 3435SOL     OW20983   0.199   7.044   2.452
 3435SOL    HW120984   0.154   7.077   2.368
 3435SOL    HW220985   0.286   7.002   2.428
 3436SOL     OW20986   0.166   9.753   2.242
 3436SOL    HW120987   0.225   9.762   2.323
 3436SOL    HW220988   0.127   9.843   2.219
 3437SOL     OW20989   3.241   4.606   3.582
 3437SOL    HW120990   3.194   4.634   3.666
 3437SOL    HW220991   3.174   4.588   3.511
 3438SOL     OW20992   2.378   9.108   1.920
 3438SOL    HW120993   2.452   9.099   1.853
 3438SOL    HW220994   2.417   9.109   2.012
 3439SOL     OW20995   9.206   7.754   0.320
 3439SOL    HW120996   9.268   7.687   0.360
 3439SOL    HW220997   9.132   7.775   0.385
 3440SOL     OW20998   9.635   3.965   2.548
 3440SOL    HW120999   9.710   3.901   2.564
 3440SOL    HW221000   9.632   4.032   2.622
 3441SOL     OW21001   1.931   5.067   0.426
 3441SOL    HW121002   1.839   5.104   0.419
 3441SOL    HW221003   1.936   4.981   0.375
 3442SOL     OW21004   3.217   7.163   1.406
 3442SOL    HW121005   3.133   7.156   1.459
 3442SOL    HW221006   3.260   7.252   1.421
 3443SOL     OW21007   3.760   8.829   1.193
 3443SOL    HW121008   3.806   8.866   1.273
 3443SOL    HW221009   3.675   8.785   1.221
 3444SOL     OW21010   4.748   1.109   2.753
 3444SOL    HW121011   4.676   1.049   2.786
 3444SOL    HW221012   4.738   1.199   2.794
 3445SOL     OW21013   0.490   1.627   0.969
 3445SOL    HW121014   0.468   1.548   0.912
 3445SOL    HW221015   0.586   1.622   0.998
 3446SOL     OW21016   4.274   0.470   1.953
 3446SOL    HW121017   4.209   0.414   1.903
 3446SOL    HW221018   4.232   0.502   2.038
 3447SOL     OW21019   1.809   0.369   2.730
 3447SOL    HW121020   1.776   0.349   2.822
 3447SOL    HW221021   1.785   0.463   2.706
 3448SOL     OW21022   7.888   1.018   4.332
 3448SOL    HW121023   7.927   1.108   4.311
 3448SOL    HW221024   7.961   0.954   4.355
 3449SOL     OW21025   3.894   8.932   1.404
 3449SOL    HW121026   3.848   9.002   1.459
 3449SOL    HW221027   3.991   8.954   1.397
 3450SOL     OW21028   8.483   8.923   3.667
 3450SOL    HW121029   8.583   8.921   3.663
 3450SOL    HW221030   8.452   8.870   3.745
 3451SOL     OW21031   1.695   3.168   2.941
 3451SOL    HW121032   1.685   3.080   2.988
 3451SOL    HW221033   1.633   3.172   2.863
 3452SOL     OW21034   1.602   1.337   0.131
 3452SOL    HW121035   1.691   1.292   0.129
 3452SOL    HW221036   1.534   1.281   0.083
 3453SOL     OW21037   1.417   6.239   0.659
 3453SOL    HW121038   1.347   6.180   0.619
 3453SOL    HW221039   1.405   6.241   0.759
 3454SOL     OW21040   3.214   9.313   0.125
 3454SOL    HW121041   3.295   9.364   0.153
 3454SOL    HW221042   3.193   9.333   0.030
 3455SOL     OW21043   8.656   2.430   4.213
 3455SOL    HW121044   8.677   2.333   4.227
 3455SOL    HW221045   8.738   2.476   4.178
 3456SOL     OW21046   9.594   6.764   0.684
 3456SOL    HW121047   9.692   6.751   0.699
 3456SOL    HW221048   9.577   6.772   0.586
 3457SOL     OW21049   0.552   7.673   3.116
 3457SOL    HW121050   0.503   7.595   3.154
 3457SOL    HW221051   0.523   7.688   3.022
 3458SOL     OW21052   6.119   0.543   0.868
 3458SOL    HW121053   6.168   0.605   0.930
 3458SOL    HW221054   6.176   0.521   0.790
 3459SOL     OW21055   0.881   8.857   2.923
 3459SOL    HW121056   0.876   8.787   2.994
 3459SOL    HW221057   0.976   8.888   2.913
 3460SOL     OW21058   7.416   8.871   0.734
 3460SOL    HW121059   7.357   8.944   0.770
 3460SOL    HW221060   7.384   8.844   0.644
 3461SOL     OW21061   0.781   8.849   2.653
 3461SOL    HW121062   0.820   8.847   2.745
 3461SOL    HW221063   0.705   8.914   2.651
 3462SOL     OW21064   8.218   1.857   0.279
 3462SOL    HW121065   8.300   1.913   0.276
 3462SOL    HW221066   8.158   1.881   0.202
 3463SOL     OW21067   0.591   9.061   2.687
 3463SOL    HW121068   0.567   9.072   2.784
 3463SOL    HW221069   0.517   9.098   2.631
 3464SOL     OW21070   2.596   2.880   1.017
 3464SOL    HW121071   2.608   2.971   0.978
 3464SOL    HW221072   2.498   2.864   1.033
 3465SOL     OW21073   8.783   5.599   4.154
 3465SOL    HW121074   8.710   5.537   4.182
 3465SOL    HW221075   8.743   5.682   4.115
 3466SOL     OW21076   0.439   7.190   1.062
 3466SOL    HW121077   0.427   7.161   1.157
 3466SOL    HW221078   0.364   7.249   1.035
 3467SOL     OW21079   1.664   7.384   4.106
 3467SOL    HW121080   1.735   7.327   4.147
 3467SOL    HW221081   1.701   7.475   4.086
 3468SOL     OW21082   9.746   5.009   4.087
 3468SOL    HW121083   9.813   5.058   4.143
 3468SOL    HW221084   9.788   4.926   4.049
 3469SOL     OW21085   0.193   3.894   3.239
 3469SOL    HW121086   0.131   3.874   3.163
 3469SOL    HW221087   0.203   3.993   3.248
 3470SOL     OW21088   8.600   6.413   0.850
 3470SOL    HW121089   8.527   6.470   0.812
 3470SOL    HW221090   8.616   6.438   0.945
 3471SOL     OW21091   2.177   2.674   2.313
 3471SOL    HW121092   2.124   2.744   2.360
 3471SOL    HW221093   2.249   2.717   2.259
 3472SOL     OW21094   0.625   6.080   1.094
 3472SOL    HW121095   0.696   6.097   1.026
 3472SOL    HW221096   0.633   5.986   1.127
 3473SOL     OW21097   6.546   7.931   1.489
 3473SOL    HW121098   6.492   7.848   1.494
 3473SOL    HW221099   6.639   7.910   1.458
 3474SOL     OW21100   5.991   0.189   4.388
 3474SOL    HW121101   5.971   0.110   4.330
 3474SOL    HW221102   5.926   0.192   4.464
 3475SOL     OW21103   3.074   9.223   3.236
 3475SOL    HW121104   3.096   9.290   3.165
 3475SOL    HW221105   3.101   9.132   3.206
 3476SOL     OW21106   3.357   9.947   1.344
 3476SOL    HW121107   3.322   0.035   1.312
 3476SOL    HW221108   3.424   9.912   1.279
 3477SOL     OW21109   4.865   2.760   1.791
 3477SOL    HW121110   4.867   2.721   1.699
 3477SOL    HW221111   4.875   2.686   1.858
 3478SOL     OW21112   3.578   1.896   0.256
 3478SOL    HW121113   3.634   1.840   0.318
 3478SOL    HW221114   3.524   1.835   0.197
 3479SOL     OW21115   2.028   9.138   0.592
 3479SOL    HW121116   2.090   9.080   0.539
 3479SOL    HW221117   2.072   9.163   0.678
 3480SOL     OW21118   2.678   8.163   0.258
 3480SOL    HW121119   2.743   8.192   0.328
 3480SOL    HW221120   2.726   8.157   0.170
 3481SOL     OW21121   2.153   4.953   2.668
 3481SOL    HW121122   2.135   5.027   2.733
 3481SOL    HW221123   2.083   4.954   2.597
 3482SOL     OW21124   2.473   1.831   4.247
 3482SOL    HW121125   2.562   1.867   4.217
 3482SOL    HW221126   2.420   1.804   4.167
 3483SOL     OW21127   0.060   4.786   0.324
 3483SOL    HW121128   9.989   4.853   0.344
 3483SOL    HW221129   0.091   4.797   0.230
 3484SOL     OW21130   5.309   8.111   1.363
 3484SOL    HW121131   5.213   8.105   1.335
 3484SOL    HW221132   5.332   8.029   1.417
 3485SOL     OW21133   0.404   4.110   3.460
 3485SOL    HW121134   0.336   4.129   3.389
 3485SOL    HW221135   0.366   4.045   3.525
 3486SOL     OW21136   4.283   6.904   3.717
 3486SOL    HW121137   4.246   6.841   3.785
 3486SOL    HW221138   4.251   6.997   3.736
 3487SOL     OW21139   1.699   4.720   0.965
 3487SOL    HW121140   1.697   4.631   0.919
 3487SOL    HW221141   1.771   4.719   1.035
 3488SOL     OW21142   0.543   5.616   2.993
 3488SOL    HW121143   0.445   5.607   2.972
 3488SOL    HW221144   0.554   5.658   3.083
 3489SOL     OW21145   2.529   4.522   1.837
 3489SOL    HW121146   2.586   4.451   1.795
 3489SOL    HW221147   2.572   4.553   1.921
 3490SOL     OW21148   0.888   7.208   3.806
 3490SOL    HW121149   0.844   7.271   3.870
 3490SOL    HW221150   0.958   7.155   3.853
 3491SOL     OW21151   0.456   0.339   0.406
 3491SOL    HW121152   0.445   0.246   0.441
 3491SOL    HW221153   0.550   0.354   0.377
 3492SOL     OW21154   4.154   8.567   2.825
 3492SOL    HW121155   4.240   8.587   2.870
 3492SOL    HW221156   4.078   8.589   2.886
 3493SOL     OW21157   3.055   6.899   1.681
 3493SOL    HW121158   3.028   6.985   1.637
 3493SOL    HW221159   3.095   6.837   1.613
 3494SOL     OW21160   6.232   7.422   2.590
 3494SOL    HW121161   6.184   7.485   2.651
 3494SOL    HW221162   6.289   7.361   2.645
 3495SOL     OW21163   4.504   8.536   2.683
 3495SOL    HW121164   4.502   8.436   2.682
 3495SOL    HW221165   4.470   8.569   2.770
 3496SOL     OW21166   9.787   0.128   0.040
 3496SOL    HW121167   9.821   0.184   5.599
 3496SOL    HW221168   9.833   0.155   0.125
 3497SOL     OW21169   6.628   7.859   3.803
 3497SOL    HW121170   6.552   7.794   3.813
 3497SOL    HW221171   6.615   7.935   3.866
 3498SOL     OW21172   1.348   6.493   4.088
 3498SOL    HW121173   1.295   6.556   4.144
 3498SOL    HW221174   1.366   6.534   3.999
 3499SOL     OW21175   7.996   5.832   1.987
 3499SOL    HW121176   7.988   5.930   1.970
 3499SOL    HW221177   8.028   5.817   2.081
 3500SOL     OW21178   0.436   2.272   3.440
 3500SOL    HW121179   0.419   2.306   3.533
 3500SOL    HW221180   0.493   2.191   3.445
 3501SOL     OW21181   9.809   9.933   1.785
 3501SOL    HW121182   9.821   9.843   1.742
 3501SOL    HW221183   9.711   9.951   1.798
 3502SOL     OW21184   9.129   9.830   1.831
 3502SOL    HW121185   9.190   9.816   1.909
 3502SOL    HW221186   9.095   9.924   1.832
 3503SOL     OW21187   3.725   9.246   0.222
 3503SOL    HW121188   3.758   9.225   0.130
 3503SOL    HW221189   3.640   9.299   0.215
 3504SOL     OW21190   0.170   7.032   3.734
 3504SOL    HW121191   0.123   6.992   3.655
 3504SOL    HW221192   0.268   7.014   3.727
 3505SOL     OW21193   1.482   9.387   4.183
 3505SOL    HW121194   1.453   9.295   4.211
 3505SOL    HW221195   1.569   9.409   4.228
 3506SOL     OW21196   1.007   1.218   3.692
 3506SOL    HW121197   0.937   1.227   3.762
 3506SOL    HW221198   0.983   1.275   3.613
 3507SOL     OW21199   2.893   7.345   1.671
 3507SOL    HW121200   2.820   7.394   1.717
 3507SOL    HW221201   2.981   7.387   1.693
 3508SOL     OW21202   1.793   5.673   4.343
 3508SOL    HW121203   1.738   5.727   4.279
 3508SOL    HW221204   1.810   5.583   4.303
 3509SOL     OW21205   2.749   0.224   3.150
 3509SOL    HW121206   2.802   0.158   3.096
 3509SOL    HW221207   2.805   0.304   3.169
 3510SOL     OW21208   8.057   3.257   1.647
 3510SOL    HW121209   7.989   3.190   1.679
 3510SOL    HW221210   8.120   3.279   1.722
 3511SOL     OW21211   5.289   2.873   0.334
 3511SOL    HW121212   5.216   2.808   0.312
 3511SOL    HW221213   5.301   2.937   0.258
 3512SOL     OW21214   6.356   8.133   3.832
 3512SOL    HW121215   6.346   8.231   3.812
 3512SOL    HW221216   6.448   8.115   3.866
 3513SOL     OW21217   8.111   0.749   3.339
 3513SOL    HW121218   8.030   0.801   3.367
 3513SOL    HW221219   8.191   0.808   3.344
 3514SOL     OW21220   3.608   6.813   2.934
 3514SOL    HW121221   3.546   6.758   2.989
 3514SOL    HW221222   3.685   6.756   2.903
 3515SOL     OW21223   8.547   9.891   1.285
 3515SOL    HW121224   8.465   9.945   1.304
 3515SOL    HW221225   8.548   9.811   1.345
 3516SOL     OW21226   6.394   1.109   3.951
 3516SOL    HW121227   6.396   1.023   4.000
 3516SOL    HW221228   6.312   1.113   3.893
 3517SOL     OW21229   9.518   6.250   0.180
 3517SOL    HW121230   9.422   6.275   0.167
 3517SOL    HW221231   9.554   6.210   0.095
 3518SOL     OW21232   0.142   8.797   0.144
 3518SOL    HW121233   0.074   8.828   0.210
 3518SOL    HW221234   0.110   8.712   0.102
 3519SOL     OW21235   8.006   5.600   0.916
 3519SOL    HW121236   7.995   5.509   0.877
 3519SOL    HW221237   8.025   5.666   0.843
 3520SOL     OW21238   4.759   4.928   0.472
 3520SOL    HW121239   4.821   4.982   0.530
 3520SOL    HW221240   4.665   4.945   0.498
 3521SOL     OW21241   9.947   0.560   3.583
 3521SOL    HW121242   9.939   0.656   3.609
 3521SOL    HW221243   9.926   0.502   3.662
 3522SOL     OW21244   3.365   4.773   3.006
 3522SOL    HW121245   3.456   4.769   2.965
 3522SOL    HW221246   3.371   4.811   3.098
 3523SOL     OW21247   2.255   7.530   2.622
 3523SOL    HW121248   2.237   7.628   2.633
 3523SOL    HW221249   2.353   7.514   2.614
 3524SOL     OW21250   2.983   9.860   4.185
 3524SOL    HW121251   2.987   9.807   4.100
 3524SOL    HW221252   3.070   9.907   4.199
 3525SOL     OW21253   0.067   0.425   2.574
 3525SOL    HW121254   0.161   0.426   2.543
 3525SOL    HW221255   0.041   0.516   2.607
 3526SOL     OW21256   6.108   0.941   2.644
 3526SOL    HW121257   6.186   0.916   2.586
 3526SOL    HW221258   6.122   1.033   2.681
 3527SOL     OW21259   2.670   5.844   3.826
 3527SOL    HW121260   2.608   5.886   3.759
 3527SOL    HW221261   2.763   5.842   3.788
 3528SOL     OW21262   5.313   1.608   2.517
 3528SOL    HW121263   5.399   1.597   2.566
 3528SOL    HW221264   5.328   1.660   2.433
 3529SOL     OW21265   3.683   2.300   3.291
 3529SOL    HW121266   3.761   2.244   3.316
 3529SOL    HW221267   3.651   2.350   3.372
 3530SOL     OW21268   1.795   3.523   2.825
 3530SOL    HW121269   1.821   3.475   2.909
 3530SOL    HW221270   1.791   3.457   2.750
 3531SOL     OW21271   2.191   1.097   3.446
 3531SOL    HW121272   2.118   1.133   3.388
 3531SOL    HW221273   2.169   1.114   3.542
 3532SOL     OW21274   4.206   6.622   2.955
 3532SOL    HW121275   4.159   6.541   2.919
 3532SOL    HW221276   4.203   6.621   3.055
 3533SOL     OW21277   3.720   5.024   4.098
 3533SOL    HW121278   3.624   5.052   4.108
 3533SOL    HW221279   3.729   4.962   4.021
 3534SOL     OW21280   3.141   6.566   0.423
 3534SOL    HW121281   3.070   6.636   0.428
 3534SOL    HW221282   3.144   6.516   0.509
 3535SOL     OW21283   9.675   0.643   3.886
 3535SOL    HW121284   9.690   0.545   3.904
 3535SOL    HW221285   9.721   0.696   3.957
 3536SOL     OW21286   1.846   4.335   2.767
 3536SOL    HW121287   1.760   4.379   2.744
 3536SOL    HW221288   1.834   4.279   2.850
 3537SOL     OW21289   0.731   0.264   4.199
 3537SOL    HW121290   0.823   0.302   4.203
 3537SOL    HW221291   0.683   0.283   4.285
 3538SOL     OW21292   7.304   9.092   4.206
 3538SOL    HW121293   7.394   9.049   4.202
 3538SOL    HW221294   7.245   9.041   4.268
 3539SOL     OW21295   0.553   3.584   3.123
 3539SOL    HW121296   0.586   3.528   3.199
 3539SOL    HW221297   0.466   3.547   3.090
 3540SOL     OW21298   9.172   1.154   2.915
 3540SOL    HW121299   9.125   1.212   2.847
 3540SOL    HW221300   9.141   1.179   3.006
 3541SOL     OW21301   8.511   7.196   2.211
 3541SOL    HW121302   8.468   7.110   2.237
 3541SOL    HW221303   8.441   7.261   2.181
 3542SOL     OW21304   2.933   2.570   4.102
 3542SOL    HW121305   2.895   2.605   4.188
 3542SOL    HW221306   3.028   2.544   4.117
 3543SOL     OW21307   5.086   7.832   4.235
 3543SOL    HW121308   5.079   7.915   4.290
 3543SOL    HW221309   5.154   7.845   4.163
 3544SOL     OW21310   8.545   4.294   3.622
 3544SOL    HW121311   8.534   4.284   3.524
 3544SOL    HW221312   8.495   4.221   3.669
 3545SOL     OW21313   0.191   4.879   2.284
 3545SOL    HW121314   0.278   4.920   2.312
 3545SOL    HW221315   0.167   4.806   2.348
 3546SOL     OW21316   1.129   2.320   1.961
 3546SOL    HW121317   1.126   2.311   2.060
 3546SOL    HW221318   1.219   2.288   1.928
 3547SOL     OW21319   8.314   1.272   1.283
 3547SOL    HW121320   8.254   1.315   1.350
 3547SOL    HW221321   8.300   1.313   1.193
 3548SOL     OW21322   7.967   7.848   3.814
 3548SOL    HW121323   8.014   7.861   3.901
 3548SOL    HW221324   7.872   7.822   3.831
 3549SOL     OW21325   5.053   7.050   2.694
 3549SOL    HW121326   5.036   7.032   2.790
 3549SOL    HW221327   5.009   7.137   2.668
 3550SOL     OW21328   7.114   7.984   3.790
 3550SOL    HW121329   7.193   7.979   3.851
 3550SOL    HW221330   7.101   7.896   3.744
 3551SOL     OW21331   9.455   2.986   1.594
 3551SOL    HW121332   9.373   2.954   1.546
 3551SOL    HW221333   9.514   3.034   1.529
 3552SOL     OW21334   1.013   8.475   1.012
 3552SOL    HW121335   1.009   8.407   0.939
 3552SOL    HW221336   0.936   8.539   1.002
 3553SOL     OW21337   4.717   2.971   3.783
 3553SOL    HW121338   4.681   3.055   3.740
 3553SOL    HW221339   4.816   2.967   3.770
 3554SOL     OW21340   0.219   2.807   0.608
 3554SOL    HW121341   0.210   2.739   0.681
 3554SOL    HW221342   0.184   2.895   0.639
 3555SOL     OW21343   8.658   8.783   2.156
 3555SOL    HW121344   8.602   8.702   2.138
 3555SOL    HW221345   8.736   8.757   2.213
 3556SOL     OW21346   2.961   7.539   2.894
 3556SOL    HW121347   2.938   7.636   2.883
 3556SOL    HW221348   2.968   7.496   2.804
 3557SOL     OW21349   8.955   9.467   3.164
 3557SOL    HW121350   9.029   9.511   3.113
 3557SOL    HW221351   8.971   9.478   3.262
 3558SOL     OW21352   4.550   3.974   3.490
 3558SOL    HW121353   4.525   3.878   3.479
 3558SOL    HW221354   4.649   3.982   3.504
 3559SOL     OW21355   3.246   6.041   2.062
 3559SOL    HW121356   3.185   6.096   2.119
 3559SOL    HW221357   3.295   5.975   2.119
 3560SOL     OW21358   6.343   1.630   4.021
 3560SOL    HW121359   6.362   1.532   4.031
 3560SOL    HW221360   6.402   1.682   4.083
 3561SOL     OW21361   5.254   1.674   3.253
 3561SOL    HW121362   5.209   1.763   3.254
 3561SOL    HW221363   5.238   1.629   3.165
 3562SOL     OW21364   4.151   1.103   0.314
 3562SOL    HW121365   4.161   1.179   0.250
 3562SOL    HW221366   4.144   1.017   0.262
 3563SOL     OW21367   0.407   7.801   0.931
 3563SOL    HW121368   0.418   7.795   1.030
 3563SOL    HW221369   0.315   7.831   0.908
 3564SOL     OW21370   9.572   0.941   3.210
 3564SOL    HW121371   9.663   0.939   3.252
 3564SOL    HW221372   9.503   0.952   3.281
 3565SOL     OW21373   8.991   5.537   3.506
 3565SOL    HW121374   8.926   5.496   3.569
 3565SOL    HW221375   8.972   5.635   3.497
 3566SOL     OW21376   7.048   8.143   1.937
 3566SOL    HW121377   7.061   8.240   1.956
 3566SOL    HW221378   7.050   8.128   1.839
 3567SOL     OW21379   2.949   8.081   1.253
 3567SOL    HW121380   3.000   8.059   1.336
 3567SOL    HW221381   2.972   8.174   1.224
 3568SOL     OW21382   6.575   1.113   2.781
 3568SOL    HW121383   6.566   1.196   2.836
 3568SOL    HW221384   6.520   1.123   2.698
 3569SOL     OW21385   9.572   0.919   2.483
 3569SOL    HW121386   9.578   0.901   2.385
 3569SOL    HW221387   9.509   0.854   2.525
 3570SOL     OW21388   3.199   1.614   0.446
 3570SOL    HW121389   3.208   1.713   0.444
 3570SOL    HW221390   3.249   1.577   0.524
 3571SOL     OW21391   4.237   9.544   3.938
 3571SOL    HW121392   4.214   9.506   4.028
 3571SOL    HW221393   4.154   9.576   3.893
 3572SOL     OW21394   9.876   5.137   1.941
 3572SOL    HW121395   9.867   5.065   2.010
 3572SOL    HW221396   9.972   5.163   1.932
 3573SOL     OW21397   4.497   2.113   1.551
 3573SOL    HW121398   4.573   2.068   1.598
 3573SOL    HW221399   4.474   2.062   1.468
 3574SOL     OW21400   5.660   2.189   2.523
 3574SOL    HW121401   5.676   2.110   2.464
 3574SOL    HW221402   5.586   2.244   2.486
 3575SOL     OW21403   2.055   5.443   0.783
 3575SOL    HW121404   1.983   5.447   0.853
 3575SOL    HW221405   2.111   5.362   0.799
 3576SOL     OW21406   2.853   0.668   2.272
 3576SOL    HW121407   2.950   0.658   2.294
 3576SOL    HW221408   2.805   0.707   2.350
 3577SOL     OW21409   0.281   0.917   1.882
 3577SOL    HW121410   0.363   0.965   1.850
 3577SOL    HW221411   0.207   0.982   1.896
 3578SOL     OW21412   5.989   6.950   3.892
 3578SOL    HW121413   5.922   6.901   3.836
 3578SOL    HW221414   5.972   7.048   3.885
 3579SOL     OW21415   4.042   6.449   2.152
 3579SOL    HW121416   4.076   6.368   2.201
 3579SOL    HW221417   4.050   6.434   2.054
 3580SOL     OW21418   4.771   0.368   0.471
 3580SOL    HW121419   4.757   0.385   0.373
 3580SOL    HW221420   4.694   0.405   0.522
 3581SOL     OW21421   6.420   0.368   2.726
 3581SOL    HW121422   6.517   0.386   2.743
 3581SOL    HW221423   6.374   0.351   2.814
 3582SOL     OW21424   2.698   8.128   1.995
 3582SOL    HW121425   2.709   8.061   2.069
 3582SOL    HW221426   2.620   8.102   1.938
 3583SOL     OW21427   0.044   6.550   0.553
 3583SOL    HW121428   0.032   6.451   0.540
 3583SOL    HW221429   0.132   6.567   0.596
 3584SOL     OW21430   4.747   0.749   0.056
 3584SOL    HW121431   4.819   0.682   0.079
 3584SOL    HW221432   4.749   0.767   5.592
 3585SOL     OW21433   7.505   9.056   3.281
 3585SOL    HW121434   7.425   9.029   3.334
 3585SOL    HW221435   7.501   9.154   3.261
 3586SOL     OW21436   4.988   6.252   1.799
 3586SOL    HW121437   5.007   6.327   1.736
 3586SOL    HW221438   4.970   6.288   1.890
 3587SOL     OW21439   3.214   8.571   4.202
 3587SOL    HW121440   3.166   8.484   4.216
 3587SOL    HW221441   3.237   8.581   4.106
 3588SOL     OW21442   2.216   2.897   1.536
 3588SOL    HW121443   2.215   2.995   1.516
 3588SOL    HW221444   2.185   2.847   1.456
 3589SOL     OW21445   9.841   7.112   1.906
 3589SOL    HW121446   9.898   7.055   1.965
 3589SOL    HW221447   9.779   7.166   1.963
 3590SOL     OW21448   0.449   9.332   4.251
 3590SOL    HW121449   0.540   9.372   4.267
 3590SOL    HW221450   0.415   9.291   4.336
 3591SOL     OW21451   8.585   9.590   3.875
 3591SOL    HW121452   8.582   9.526   3.952
 3591SOL    HW221453   8.543   9.548   3.794
 3592SOL     OW21454   7.042   1.346   0.676
 3592SOL    HW121455   7.072   1.302   0.591
 3592SOL    HW221456   6.963   1.297   0.713
 3593SOL     OW21457   3.326   7.425   1.191
 3593SOL    HW121458   3.336   7.430   1.291
 3593SOL    HW221459   3.337   7.517   1.153
 3594SOL     OW21460   0.524   7.403   3.894
 3594SOL    HW121461   0.483   7.494   3.898
 3594SOL    HW221462   0.515   7.366   3.802
 3595SOL     OW21463   2.744   1.746   2.267
 3595SOL    HW121464   2.816   1.731   2.199
 3595SOL    HW221465   2.708   1.658   2.297
 3596SOL     OW21466   3.586   9.067   0.404
 3596SOL    HW121467   3.659   9.095   0.342
 3596SOL    HW221468   3.519   9.140   0.412
 3597SOL     OW21469   1.261   7.176   1.750
 3597SOL    HW121470   1.175   7.202   1.794
 3597SOL    HW221471   1.247   7.093   1.696
 3598SOL     OW21472   8.047   1.717   4.019
 3598SOL    HW121473   8.041   1.655   3.941
 3598SOL    HW221474   8.044   1.812   3.988
 3599SOL     OW21475   0.908   9.977   2.862
 3599SOL    HW121476   0.934   9.921   2.941
 3599SOL    HW221477   0.826   9.938   2.820
 3600SOL     OW21478   2.100   3.248   4.118
 3600SOL    HW121479   2.187   3.272   4.074
 3600SOL    HW221480   2.072   3.322   4.179
 3601SOL     OW21481   7.287   9.910   1.127
 3601SOL    HW121482   7.311   0.005   1.109
 3601SOL    HW221483   7.363   9.851   1.100
 3602SOL     OW21484   3.332   2.102   3.968
 3602SOL    HW121485   3.320   2.010   3.933
 3602SOL    HW221486   3.250   2.129   4.019
 3603SOL     OW21487   3.263   2.459   1.586
 3603SOL    HW121488   3.288   2.458   1.683
 3603SOL    HW221489   3.294   2.545   1.545
 3604SOL     OW21490   8.829   3.287   3.742
 3604SOL    HW121491   8.808   3.193   3.713
 3604SOL    HW221492   8.759   3.319   3.805
 3605SOL     OW21493   0.427   9.818   0.433
 3605SOL    HW121494   0.494   9.837   0.362
 3605SOL    HW221495   0.356   9.758   0.397
 3606SOL     OW21496   7.284   8.731   4.275
 3606SOL    HW121497   7.382   8.728   4.255
 3606SOL    HW221498   7.246   8.638   4.273
 3607SOL     OW21499   3.807   5.104   2.400
 3607SOL    HW121500   3.742   5.032   2.423
 3607SOL    HW221501   3.880   5.066   2.343
 3608SOL     OW21502   0.549   9.988   3.900
 3608SOL    HW121503   0.646   0.008   3.919
 3608SOL    HW221504   0.499   9.983   3.986
 3609SOL     OW21505   1.319   2.965   4.002
 3609SOL    HW121506   1.378   2.910   3.943
 3609SOL    HW221507   1.230   2.979   3.957
 3610SOL     OW21508   9.793   4.162   3.239
 3610SOL    HW121509   9.818   4.065   3.236
 3610SOL    HW221510   9.853   4.213   3.177
 3611SOL     OW21511   6.678   9.984   1.473
 3611SOL    HW121512   6.628   0.016   1.554
 3611SOL    HW221513   6.613   9.951   1.404
 3612SOL     OW21514   0.088   6.561   1.600
 3612SOL    HW121515   0.108   6.640   1.543
 3612SOL    HW221516   0.154   6.488   1.583
 3613SOL     OW21517   4.756   9.498   2.625
 3613SOL    HW121518   4.791   9.492   2.531
 3613SOL    HW221519   4.717   9.589   2.640
 3614SOL     OW21520   2.154   9.575   0.376
 3614SOL    HW121521   2.113   9.666   0.378
 3614SOL    HW221522   2.110   9.518   0.447
 3615SOL     OW21523   9.444   1.773   0.312
 3615SOL    HW121524   9.384   1.850   0.291
 3615SOL    HW221525   9.396   1.709   0.371
 3616SOL     OW21526   0.320   3.300   2.541
 3616SOL    HW121527   0.412   3.339   2.546
 3616SOL    HW221528   0.309   3.254   2.453
 3617SOL     OW21529   1.728   7.167   2.591
 3617SOL    HW121530   1.630   7.172   2.573
 3617SOL    HW221531   1.750   7.077   2.630
 3618SOL     OW21532   7.567   2.193   3.534
 3618SOL    HW121533   7.505   2.261   3.495
 3618SOL    HW221534   7.520   2.104   3.538
 3619SOL     OW21535   4.134   7.495   1.923
 3619SOL    HW121536   4.122   7.577   1.979
 3619SOL    HW221537   4.196   7.432   1.970
 3620SOL     OW21538   3.861   3.061   4.028
 3620SOL    HW121539   3.806   3.137   3.995
 3620SOL    HW221540   3.803   2.996   4.077
 3621SOL     OW21541   0.181   4.777   1.192
 3621SOL    HW121542   0.128   4.704   1.148
 3621SOL    HW221543   0.123   4.857   1.207
 3622SOL     OW21544   8.645   6.337   3.431
 3622SOL    HW121545   8.597   6.319   3.345
 3622SOL    HW221546   8.697   6.255   3.458
 3623SOL     OW21547   4.437   4.613   1.745
 3623SOL    HW121548   4.457   4.522   1.780
 3623SOL    HW221549   4.420   4.608   1.647
 3624SOL     OW21550   3.586   2.636   3.674
 3624SOL    HW121551   3.494   2.667   3.650
 3624SOL    HW221552   3.634   2.709   3.722
 3625SOL     OW21553   4.671   9.960   3.065
 3625SOL    HW121554   4.679   9.866   3.097
 3625SOL    HW221555   4.600   0.008   3.117
 3626SOL     OW21556   0.855   1.487   2.831
 3626SOL    HW121557   0.786   1.538   2.780
 3626SOL    HW221558   0.918   1.552   2.876
 3627SOL     OW21559   2.424   8.576   3.832
 3627SOL    HW121560   2.459   8.606   3.920
 3627SOL    HW221561   2.497   8.581   3.763
 3628SOL     OW21562   9.828   3.899   2.181
 3628SOL    HW121563   9.798   3.887   2.087
 3628SOL    HW221564   9.808   3.817   2.234
 3629SOL     OW21565   1.108   3.824   4.020
 3629SOL    HW121566   1.149   3.878   4.094
 3629SOL    HW221567   1.057   3.885   3.960
 3630SOL     OW21568   2.185   2.126   0.683
 3630SOL    HW121569   2.181   2.038   0.731
 3630SOL    HW221570   2.227   2.195   0.742
 3631SOL     OW21571   1.423   7.114   0.326
 3631SOL    HW121572   1.394   7.050   0.398
 3631SOL    HW221573   1.492   7.070   0.268
 3632SOL     OW21574   3.501   7.034   1.496
 3632SOL    HW121575   3.428   6.987   1.447
 3632SOL    HW221576   3.519   7.122   1.453
 3633SOL     OW21577   1.681   0.528   1.750
 3633SOL    HW121578   1.670   0.524   1.850
 3633SOL    HW221579   1.768   0.573   1.728
 3634SOL     OW21580   9.401   7.727   2.720
 3634SOL    HW121581   9.480   7.706   2.778
 3634SOL    HW221582   9.319   7.687   2.759
 3635SOL     OW21583   9.850   9.661   0.893
 3635SOL    HW121584   9.803   9.576   0.916
 3635SOL    HW221585   9.917   9.643   0.820
 3636SOL     OW21586   0.309   9.596   1.641
 3636SOL    HW121587   0.328   9.640   1.554
 3636SOL    HW221588   0.386   9.538   1.668
 3637SOL     OW21589   7.259   2.975   0.611
 3637SOL    HW121590   7.323   2.918   0.662
 3637SOL    HW221591   7.205   3.030   0.675
 3638SOL     OW21592   8.726   2.942   1.782
 3638SOL    HW121593   8.792   2.879   1.824
 3638SOL    HW221594   8.761   3.036   1.789
 3639SOL     OW21595   2.456   4.043   0.940
 3639SOL    HW121596   2.547   4.078   0.963
 3639SOL    HW221597   2.388   4.115   0.955
 3640SOL     OW21598   4.106   2.124   0.496
 3640SOL    HW121599   4.137   2.058   0.565
 3640SOL    HW221600   4.022   2.090   0.453
 3641SOL     OW21601   7.979   2.187   1.713
 3641SOL    HW121602   8.036   2.230   1.783
 3641SOL    HW221603   7.883   2.204   1.734
 3642SOL     OW21604   6.877   1.293   4.009
 3642SOL    HW121605   6.849   1.375   4.059
 3642SOL    HW221606   6.798   1.256   3.959
 3643SOL     OW21607   6.089   7.119   1.865
 3643SOL    HW121608   6.057   7.156   1.778
 3643SOL    HW221609   6.024   7.142   1.937
 3644SOL     OW21610   2.832   4.866   0.062
 3644SOL    HW121611   2.838   4.813   5.611
 3644SOL    HW221612   2.914   4.922   0.072
 3645SOL     OW21613   6.919   0.237   0.343
 3645SOL    HW121614   6.938   0.182   0.424
 3645SOL    HW221615   6.983   0.212   0.270
 3646SOL     OW21616   1.299   4.593   0.558
 3646SOL    HW121617   1.295   4.672   0.619
 3646SOL    HW221618   1.315   4.624   0.464
 3647SOL     OW21619   4.458   4.032   2.083
 3647SOL    HW121620   4.371   3.988   2.102
 3647SOL    HW221621   4.493   4.001   1.994
 3648SOL     OW21622   9.624   2.289   0.549
 3648SOL    HW121623   9.581   2.220   0.491
 3648SOL    HW221624   9.554   2.351   0.585
 3649SOL     OW21625   2.697   4.249   2.825
 3649SOL    HW121626   2.790   4.266   2.792
 3649SOL    HW221627   2.683   4.300   2.910
 3650SOL     OW21628   8.968   4.263   3.150
 3650SOL    HW121629   8.993   4.327   3.223
 3650SOL    HW221630   8.885   4.215   3.176
 3651SOL     OW21631   2.046   1.425   0.807
 3651SOL    HW121632   2.013   1.469   0.890
 3651SOL    HW221633   1.974   1.366   0.770
 3652SOL     OW21634   9.632   2.964   1.805
 3652SOL    HW121635   9.620   2.880   1.858
 3652SOL    HW221636   9.564   2.966   1.732
 3653SOL     OW21637   0.052   9.105   0.724
 3653SOL    HW121638   9.994   9.030   0.693
 3653SOL    HW221639   0.127   9.069   0.779
 3654SOL     OW21640   1.802   4.198   3.682
 3654SOL    HW121641   1.704   4.216   3.679
 3654SOL    HW221642   1.846   4.241   3.603
 3655SOL     OW21643   1.549   6.485   2.957
 3655SOL    HW121644   1.641   6.491   2.917
 3655SOL    HW221645   1.536   6.561   3.021
 3656SOL     OW21646   2.379   1.831   3.154
 3656SOL    HW121647   2.354   1.792   3.242
 3656SOL    HW221648   2.311   1.805   3.085
 3657SOL     OW21649   9.498   5.406   0.904
 3657SOL    HW121650   9.453   5.469   0.968
 3657SOL    HW221651   9.489   5.441   0.811
 3658SOL     OW21652   3.300   2.257   0.547
 3658SOL    HW121653   3.360   2.193   0.498
 3658SOL    HW221654   3.289   2.226   0.642
 3659SOL     OW21655   1.481   2.628   4.278
 3659SOL    HW121656   1.443   2.615   4.370
 3659SOL    HW221657   1.519   2.542   4.245
 3660SOL     OW21658   2.056   5.344   4.357
 3660SOL    HW121659   2.044   5.368   4.454
 3660SOL    HW221660   1.976   5.375   4.305
 3661SOL     OW21661   9.460   9.752   1.225
 3661SOL    HW121662   9.555   9.752   1.193
 3661SOL    HW221663   9.440   9.838   1.271
 3662SOL     OW21664   6.379   0.007   2.451
 3662SOL    HW121665   6.478   0.023   2.449
 3662SOL    HW221666   6.357   9.929   2.393
 3663SOL     OW21667   1.452   1.296   4.046
 3663SOL    HW121668   1.461   1.394   4.065
 3663SOL    HW221669   1.398   1.283   3.963
 3664SOL     OW21670   9.635   3.535   3.270
 3664SOL    HW121671   9.609   3.453   3.220
 3664SOL    HW221672   9.667   3.510   3.361
 3665SOL     OW21673   1.799   9.340   3.901
 3665SOL    HW121674   1.735   9.263   3.899
 3665SOL    HW221675   1.893   9.305   3.892
 3666SOL     OW21676   7.725   7.168   2.550
 3666SOL    HW121677   7.685   7.258   2.533
 3666SOL    HW221678   7.794   7.175   2.622
 3667SOL     OW21679   7.040   1.109   0.996
 3667SOL    HW121680   6.982   1.169   0.941
 3667SOL    HW221681   7.075   1.035   0.939
 3668SOL     OW21682   4.209   2.940   0.528
 3668SOL    HW121683   4.150   2.991   0.466
 3668SOL    HW221684   4.193   2.842   0.516
 3669SOL     OW21685   3.488   4.534   0.196
 3669SOL    HW121686   3.532   4.614   0.236
 3669SOL    HW221687   3.399   4.560   0.158
 3670SOL     OW21688   6.446   9.317   1.416
 3670SOL    HW121689   6.377   9.389   1.408
 3670SOL    HW221690   6.465   9.279   1.326
 3671SOL     OW21691   3.658   1.704   0.791
 3671SOL    HW121692   3.597   1.748   0.857
 3671SOL    HW221693   3.736   1.765   0.773
 3672SOL     OW21694   3.364   6.527   2.130
 3672SOL    HW121695   3.306   6.495   2.055
 3672SOL    HW221696   3.429   6.595   2.095
 3673SOL     OW21697   6.544   9.846   1.266
 3673SOL    HW121698   6.629   9.805   1.234
 3673SOL    HW221699   6.470   9.825   1.202
 3674SOL     OW21700   6.805   0.191   2.792
 3674SOL    HW121701   6.762   0.281   2.789
 3674SOL    HW221702   6.806   0.158   2.886
 3675SOL     OW21703   0.667   0.557   0.102
 3675SOL    HW121704   0.708   0.646   0.124
 3675SOL    HW221705   0.668   0.544   0.002
 3676SOL     OW21706   2.124   1.331   4.120
 3676SOL    HW121707   2.126   1.317   4.219
 3676SOL    HW221708   2.052   1.273   4.081
 3677SOL     OW21709   2.624   6.046   1.390
 3677SOL    HW121710   2.592   6.022   1.299
 3677SOL    HW221711   2.564   6.005   1.459
 3678SOL     OW21712   0.412   2.977   1.479
 3678SOL    HW121713   0.361   3.031   1.546
 3678SOL    HW221714   0.414   3.026   1.392
 3679SOL     OW21715   9.707   3.416   2.528
 3679SOL    HW121716   9.644   3.453   2.460
 3679SOL    HW221717   9.656   3.365   2.597
 3680SOL     OW21718   3.847   7.188   1.922
 3680SOL    HW121719   3.893   7.242   1.851
 3680SOL    HW221720   3.837   7.094   1.891
 3681SOL     OW21721   7.649   9.246   2.438
 3681SOL    HW121722   7.708   9.317   2.477
 3681SOL    HW221723   7.653   9.250   2.338
 3682SOL     OW21724   9.087   0.350   1.810
 3682SOL    HW121725   9.129   0.409   1.879
 3682SOL    HW221726   9.093   0.393   1.720
 3683SOL     OW21727   2.705   2.588   3.777
 3683SOL    HW121728   2.686   2.570   3.873
 3683SOL    HW221729   2.672   2.513   3.721
 3684SOL     OW21730   1.420   1.367   3.053
 3684SOL    HW121731   1.429   1.304   2.976
 3684SOL    HW221732   1.328   1.405   3.054
 3685SOL     OW21733   2.018   1.195   3.257
 3685SOL    HW121734   1.930   1.241   3.270
 3685SOL    HW221735   2.081   1.257   3.209
 3686SOL     OW21736   3.489   8.556   2.030
 3686SOL    HW121737   3.548   8.475   2.032
 3686SOL    HW221738   3.445   8.566   2.120
 3687SOL     OW21739   3.132   8.309   3.767
 3687SOL    HW121740   3.187   8.358   3.699
 3687SOL    HW221741   3.067   8.250   3.721
 3688SOL     OW21742   6.069   0.541   0.505
 3688SOL    HW121743   6.091   0.637   0.487
 3688SOL    HW221744   6.142   0.500   0.560
 3689SOL     OW21745   8.800   1.625   3.153
 3689SOL    HW121746   8.857   1.686   3.208
 3689SOL    HW221747   8.751   1.680   3.084
 3690SOL     OW21748   0.760   9.220   0.807
 3690SOL    HW121749   0.791   9.310   0.777
 3690SOL    HW221750   0.816   9.149   0.765
 3691SOL     OW21751   9.517   8.856   4.398
 3691SOL    HW121752   9.490   8.829   4.490
 3691SOL    HW221753   9.479   8.792   4.331
 3692SOL     OW21754   0.327   0.797   0.660
 3692SOL    HW121755   0.365   0.739   0.588
 3692SOL    HW221756   0.390   0.872   0.680
 3693SOL     OW21757   1.892   2.260   4.051
 3693SOL    HW121758   1.910   2.178   4.105
 3693SOL    HW221759   1.893   2.340   4.111
 3694SOL     OW21760   1.988   7.103   1.533
 3694SOL    HW121761   1.956   7.171   1.600
 3694SOL    HW221762   1.925   7.026   1.532
 3695SOL     OW21763   5.806   0.024   2.668
 3695SOL    HW121764   5.889   9.971   2.648
 3695SOL    HW221765   5.728   9.962   2.677
 3696SOL     OW21766   1.840   4.780   1.922
 3696SOL    HW121767   1.888   4.698   1.952
 3696SOL    HW221768   1.790   4.819   1.999
 3697SOL     OW21769   0.365   8.604   3.050
 3697SOL    HW121770   0.315   8.608   3.137
 3697SOL    HW221771   0.445   8.664   3.055
 3698SOL     OW21772   3.939   3.269   2.385
 3698SOL    HW121773   3.885   3.234   2.461
 3698SOL    HW221774   3.999   3.197   2.351
 3699SOL     OW21775   4.710   8.652   2.546
 3699SOL    HW121776   4.752   8.719   2.606
 3699SOL    HW221777   4.636   8.605   2.594
 3700SOL     OW21778   0.044   6.990   3.972
 3700SOL    HW121779   0.077   7.001   3.878
 3700SOL    HW221780   0.122   6.999   4.035
 3701SOL     OW21781   9.516   6.782   3.747
 3701SOL    HW121782   9.609   6.754   3.722
 3701SOL    HW221783   9.472   6.824   3.668
 3702SOL     OW21784   2.206   7.549   0.626
 3702SOL    HW121785   2.303   7.568   0.609
 3702SOL    HW221786   2.153   7.633   0.616
 3703SOL     OW21787   1.877   0.876   3.458
 3703SOL    HW121788   1.830   0.806   3.404
 3703SOL    HW221789   1.974   0.852   3.466
 3704SOL     OW21790   1.475   7.190   2.443
 3704SOL    HW121791   1.378   7.185   2.423
 3704SOL    HW221792   1.512   7.276   2.408
 3705SOL     OW21793   2.446   1.573   1.627
 3705SOL    HW121794   2.419   1.665   1.600
 3705SOL    HW221795   2.366   1.522   1.658
 3706SOL     OW21796   1.068   1.460   0.133
 3706SOL    HW121797   1.121   1.540   0.161
 3706SOL    HW221798   1.030   1.475   0.042
 3707SOL     OW21799   7.379   9.718   1.652
 3707SOL    HW121800   7.422   9.667   1.577
 3707SOL    HW221801   7.281   9.728   1.635
 3708SOL     OW21802   8.859   5.412   1.424
 3708SOL    HW121803   8.875   5.509   1.408
 3708SOL    HW221804   8.823   5.398   1.516
 3709SOL     OW21805   0.820   3.771   1.257
 3709SOL    HW121806   0.902   3.827   1.268
 3709SOL    HW221807   0.778   3.790   1.168
 3710SOL     OW21808   2.473   1.884   0.852
 3710SOL    HW121809   2.483   1.894   0.951
 3710SOL    HW221810   2.520   1.801   0.822
 3711SOL     OW21811   4.369   8.281   1.828
 3711SOL    HW121812   4.450   8.222   1.832
 3711SOL    HW221813   4.362   8.323   1.737
 3712SOL     OW21814   8.199   6.190   1.634
 3712SOL    HW121815   8.153   6.278   1.640
 3712SOL    HW221816   8.130   6.117   1.628
 3713SOL     OW21817   5.390   7.826   2.612
 3713SOL    HW121818   5.432   7.840   2.523
 3713SOL    HW221819   5.384   7.914   2.660
 3714SOL     OW21820   5.069   2.997   2.525
 3714SOL    HW121821   5.067   2.902   2.557
 3714SOL    HW221822   5.161   3.020   2.495
 3715SOL     OW21823   7.998   5.054   4.221
 3715SOL    HW121824   7.922   5.120   4.223
 3715SOL    HW221825   7.966   4.968   4.181
 3716SOL     OW21826   1.270   1.342   2.416
 3716SOL    HW121827   1.366   1.315   2.423
 3716SOL    HW221828   1.264   1.440   2.398
 3717SOL     OW21829   0.200   6.280   3.083
 3717SOL    HW121830   0.128   6.328   3.034
 3717SOL    HW221831   0.190   6.181   3.070
 3718SOL     OW21832   9.539   0.491   3.017
 3718SOL    HW121833   9.543   0.455   3.110
 3718SOL    HW221834   9.515   0.588   3.021
 3719SOL     OW21835   9.828   7.089   3.725
 3719SOL    HW121836   9.736   7.078   3.689
 3719SOL    HW221837   9.824   7.106   3.824
 3720SOL     OW21838   4.110   7.973   0.328
 3720SOL    HW121839   4.187   7.915   0.303
 3720SOL    HW221840   4.124   8.008   0.420
 3721SOL     OW21841   4.187   0.328   1.535
 3721SOL    HW121842   4.286   0.319   1.533
 3721SOL    HW221843   4.147   0.267   1.466
 3722SOL     OW21844   9.268   9.837   2.097
 3722SOL    HW121845   9.274   9.863   2.193
 3722SOL    HW221846   9.283   9.738   2.089
 3723SOL     OW21847   3.998   1.775   1.923
 3723SOL    HW121848   4.041   1.697   1.879
 3723SOL    HW221849   4.049   1.858   1.902
 3724SOL     OW21850   5.267   8.806   2.656
 3724SOL    HW121851   5.252   8.744   2.733
 3724SOL    HW221852   5.314   8.756   2.583
 3725SOL     OW21853   1.403   3.199   3.291
 3725SOL    HW121854   1.400   3.138   3.212
 3725SOL    HW221855   1.393   3.293   3.260
 3726SOL     OW21856   2.059   2.852   4.065
 3726SOL    HW121857   2.114   2.912   4.124
 3726SOL    HW221858   2.000   2.795   4.123
 3727SOL     OW21859   8.497   5.583   0.765
 3727SOL    HW121860   8.456   5.593   0.856
 3727SOL    HW221861   8.504   5.673   0.722
 3728SOL     OW21862   9.516   1.883   3.069
 3728SOL    HW121863   9.567   1.945   3.009
 3728SOL    HW221864   9.577   1.847   3.139
 3729SOL     OW21865   1.239   9.043   1.681
 3729SOL    HW121866   1.143   9.022   1.697
 3729SOL    HW221867   1.292   9.023   1.763
 3730SOL     OW21868   8.944   3.601   0.272
 3730SOL    HW121869   8.854   3.607   0.314
 3730SOL    HW221870   9.007   3.556   0.335
 3731SOL     OW21871   0.814   1.675   1.529
 3731SOL    HW121872   0.775   1.691   1.439
 3731SOL    HW221873   0.744   1.637   1.590
 3732SOL     OW21874   3.139   7.741   3.941
 3732SOL    HW121875   3.077   7.710   4.012
 3732SOL    HW221876   3.137   7.678   3.863
 3733SOL     OW21877   2.036   4.640   4.068
 3733SOL    HW121878   2.122   4.607   4.028
 3733SOL    HW221879   2.035   4.618   4.166
 3734SOL     OW21880   9.049   2.057   0.600
 3734SOL    HW121881   9.097   2.137   0.638
 3734SOL    HW221882   8.958   2.084   0.570
 3735SOL     OW21883   4.837   2.684   3.380
 3735SOL    HW121884   4.879   2.597   3.403
 3735SOL    HW221885   4.778   2.673   3.300
 3736SOL     OW21886   5.808   9.273   3.363
 3736SOL    HW121887   5.826   9.254   3.266
 3736SOL    HW221888   5.839   9.196   3.418
 3737SOL     OW21889   4.684   8.360   4.204
 3737SOL    HW121890   4.778   8.387   4.226
 3737SOL    HW221891   4.667   8.374   4.106
 3738SOL     OW21892   0.669   3.934   2.374
 3738SOL    HW121893   0.638   3.960   2.465
 3738SOL    HW221894   0.676   3.834   2.368
 3739SOL     OW21895   6.943   0.440   0.660
 3739SOL    HW121896   7.040   0.438   0.680
 3739SOL    HW221897   6.929   0.467   0.565
 3740SOL     OW21898   4.163   7.782   2.588
 3740SOL    HW121899   4.187   7.687   2.612
 3740SOL    HW221900   4.156   7.836   2.672
 3741SOL     OW21901   8.769   5.838   0.091
 3741SOL    HW121902   8.798   5.747   0.121
 3741SOL    HW221903   8.838   5.906   0.116
 3742SOL     OW21904   2.493   0.469   4.398
 3742SOL    HW121905   2.437   0.400   4.444
 3742SOL    HW221906   2.434   0.536   4.354
 3743SOL     OW21907   8.529   2.193   3.064
 3743SOL    HW121908   8.567   2.112   3.109
 3743SOL    HW221909   8.520   2.267   3.130
 3744SOL     OW21910   4.223   5.398   0.932
 3744SOL    HW121911   4.140   5.445   0.903
 3744SOL    HW221912   4.241   5.420   1.028
 3745SOL     OW21913   9.393   1.323   0.740
 3745SOL    HW121914   9.354   1.265   0.811
 3745SOL    HW221915   9.424   1.409   0.781
 3746SOL     OW21916   0.630   2.620   0.303
 3746SOL    HW121917   0.564   2.643   0.232
 3746SOL    HW221918   0.592   2.642   0.393
 3747SOL     OW21919   4.353   1.461   2.347
 3747SOL    HW121920   4.359   1.362   2.338
 3747SOL    HW221921   4.443   1.498   2.371
 3748SOL     OW21922   8.814   2.212   0.271
 3748SOL    HW121923   8.813   2.158   0.356
 3748SOL    HW221924   8.804   2.309   0.293
 3749SOL     OW21925   3.537   1.848   1.236
 3749SOL    HW121926   3.569   1.927   1.288
 3749SOL    HW221927   3.508   1.776   1.299
 3750SOL     OW21928   1.310   1.020   0.180
 3750SOL    HW121929   1.307   1.119   0.185
 3750SOL    HW221930   1.369   0.985   0.253
 3751SOL     OW21931   3.905   3.144   1.149
 3751SOL    HW121932   3.961   3.082   1.094
 3751SOL    HW221933   3.901   3.111   1.243
 3752SOL     OW21934   7.709   1.713   3.651
 3752SOL    HW121935   7.767   1.791   3.677
 3752SOL    HW221936   7.654   1.685   3.729
 3753SOL     OW21937   7.822   7.885   4.249
 3753SOL    HW121938   7.894   7.815   4.254
 3753SOL    HW221939   7.863   7.974   4.228
 3754SOL     OW21940   8.275   9.723   2.175
 3754SOL    HW121941   8.261   9.668   2.093
 3754SOL    HW221942   8.371   9.753   2.179
 3755SOL     OW21943   2.639   7.346   0.858
 3755SOL    HW121944   2.557   7.378   0.905
 3755SOL    HW221945   2.719   7.393   0.895
 3756SOL     OW21946   1.765   5.089   1.062
 3756SOL    HW121947   1.799   5.113   0.971
 3756SOL    HW221948   1.666   5.103   1.066
 3757SOL     OW21949   3.147   8.440   0.247
 3757SOL    HW121950   3.240   8.473   0.230
 3757SOL    HW221951   3.088   8.516   0.274
 3758SOL     OW21952   8.725   7.101   2.348
 3758SOL    HW121953   8.659   7.141   2.284
 3758SOL    HW221954   8.702   7.129   2.442
 3759SOL     OW21955   1.130   9.051   3.635
 3759SOL    HW121956   1.190   8.993   3.581
 3759SOL    HW221957   1.148   9.147   3.613
 3760SOL     OW21958   8.082   7.059   2.345
 3760SOL    HW121959   8.114   7.040   2.252
 3760SOL    HW221960   7.984   7.042   2.350
 3761SOL     OW21961   1.834   1.982   0.428
 3761SOL    HW121962   1.819   1.929   0.512
 3761SOL    HW221963   1.917   2.037   0.438
 3762SOL     OW21964   7.225   1.477   0.284
 3762SOL    HW121965   7.292   1.547   0.262
 3762SOL    HW221966   7.224   1.407   0.213
 3763SOL     OW21967   0.748   4.399   2.685
 3763SOL    HW121968   0.661   4.354   2.668
 3763SOL    HW221969   0.790   4.426   2.599
 3764SOL     OW21970   7.895   5.572   1.953
 3764SOL    HW121971   7.921   5.669   1.951
 3764SOL    HW221972   7.897   5.535   1.860
 3765SOL     OW21973   3.350   3.284   4.284
 3765SOL    HW121974   3.280   3.285   4.213
 3765SOL    HW221975   3.415   3.359   4.267
 3766SOL     OW21976   1.685   1.054   0.859
 3766SOL    HW121977   1.591   1.060   0.826
 3766SOL    HW221978   1.687   0.999   0.943
 3767SOL     OW21979   9.534   0.396   0.430
 3767SOL    HW121980   9.623   0.432   0.402
 3767SOL    HW221981   9.509   0.321   0.368
 3768SOL     OW21982   6.300   7.094   2.256
 3768SOL    HW121983   6.261   7.184   2.235
 3768SOL    HW221984   6.227   7.032   2.286
 3769SOL     OW21985   5.296   0.282   0.976
 3769SOL    HW121986   5.388   0.260   1.007
 3769SOL    HW221987   5.300   0.316   0.882
 3770SOL     OW21988   3.455   6.128   1.157
 3770SOL    HW121989   3.430   6.094   1.067
 3770SOL    HW221990   3.378   6.117   1.220
 3771SOL     OW21991   1.575   5.232   2.294
 3771SOL    HW121992   1.575   5.311   2.234
 3771SOL    HW221993   1.664   5.186   2.289
 3772SOL     OW21994   0.423   2.846   0.869
 3772SOL    HW121995   0.495   2.824   0.804
 3772SOL    HW221996   0.387   2.937   0.849
 3773SOL     OW21997   5.824   0.252   3.104
 3773SOL    HW121998   5.830   0.232   3.006
 3773SOL    HW221999   5.797   0.169   3.153
 3774SOL     OW22000   7.404   3.158   0.464
 3774SOL    HW122001   7.352   3.080   0.498
 3774SOL    HW222002   7.394   3.164   0.365
 3775SOL     OW22003   2.990   3.636   3.394
 3775SOL    HW122004   3.059   3.580   3.439
 3775SOL    HW222005   3.035   3.700   3.331
 3776SOL     OW22006   0.044   8.887   4.209
 3776SOL    HW122007   0.053   8.980   4.172
 3776SOL    HW222008   9.948   8.859   4.204
 3777SOL     OW22009   3.220   6.070   1.287
 3777SOL    HW122010   3.169   6.096   1.369
 3777SOL    HW222011   3.226   5.970   1.282
 3778SOL     OW22012   9.411   4.223   2.283
 3778SOL    HW122013   9.426   4.319   2.262
 3778SOL    HW222014   9.499   4.176   2.288
 3779SOL     OW22015   2.472   9.400   3.963
 3779SOL    HW122016   2.518   9.488   3.951
 3779SOL    HW222017   2.478   9.347   3.879
 3780SOL     OW22018   5.165   0.870   1.415
 3780SOL    HW122019   5.175   0.906   1.508
 3780SOL    HW222020   5.082   0.814   1.409
 3781SOL     OW22021   8.903   9.947   2.060
 3781SOL    HW122022   8.968   9.997   2.003
 3781SOL    HW222023   8.943   9.859   2.086
 3782SOL     OW22024   7.649   9.104   0.945
 3782SOL    HW122025   7.580   9.055   0.999
 3782SOL    HW222026   7.660   9.058   0.856
 3783SOL     OW22027   1.693   8.963   1.296
 3783SOL    HW122028   1.705   9.015   1.381
 3783SOL    HW222029   1.610   8.908   1.303
 3784SOL     OW22030   2.063   5.601   1.838
 3784SOL    HW122031   2.027   5.547   1.762
 3784SOL    HW222032   2.089   5.540   1.914
 3785SOL     OW22033   3.757   6.877   2.577
 3785SOL    HW122034   3.830   6.852   2.514
 3785SOL    HW222035   3.669   6.847   2.540
 3786SOL     OW22036   6.783   9.740   1.191
 3786SOL    HW122037   6.848   9.736   1.115
 3786SOL    HW222038   6.834   9.748   1.277
 3787SOL     OW22039   2.199   2.457   1.474
 3787SOL    HW122040   2.179   2.453   1.572
 3787SOL    HW222041   2.289   2.500   1.461
 3788SOL     OW22042   1.540   6.705   3.118
 3788SOL    HW122043   1.472   6.754   3.173
 3788SOL    HW222044   1.577   6.767   3.049
 3789SOL     OW22045   9.397   8.597   0.463
 3789SOL    HW122046   9.360   8.593   0.556
 3789SOL    HW222047   9.343   8.661   0.408
 3790SOL     OW22048   4.192   3.433   3.221
 3790SOL    HW122049   4.169   3.391   3.134
 3790SOL    HW222050   4.158   3.376   3.296
 3791SOL     OW22051   0.533   8.481   1.649
 3791SOL    HW122052   0.541   8.521   1.740
 3791SOL    HW222053   0.590   8.398   1.644
 3792SOL     OW22054   4.617   2.536   2.609
 3792SOL    HW122055   4.575   2.616   2.652
 3792SOL    HW222056   4.708   2.522   2.647
 3793SOL     OW22057   1.945   3.240   1.956
 3793SOL    HW122058   1.948   3.232   2.056
 3793SOL    HW222059   1.982   3.329   1.930
 3794SOL     OW22060   5.543   8.384   4.296
 3794SOL    HW122061   5.573   8.479   4.290
 3794SOL    HW222062   5.591   8.329   4.229
 3795SOL     OW22063   6.035   9.080   1.972
 3795SOL    HW122064   6.089   9.118   1.897
 3795SOL    HW222065   6.090   9.014   2.023
 3796SOL     OW22066   8.263   4.820   2.181
 3796SOL    HW122067   8.304   4.863   2.261
 3796SOL    HW222068   8.213   4.888   2.127
 3797SOL     OW22069   7.307   0.654   3.117
 3797SOL    HW122070   7.345   0.619   3.032
 3797SOL    HW222071   7.259   0.740   3.100
 3798SOL     OW22072   7.936   8.643   3.794
 3798SOL    HW122073   7.841   8.660   3.818
 3798SOL    HW222074   7.961   8.550   3.822
 3799SOL     OW22075   8.211   4.561   2.094
 3799SOL    HW122076   8.231   4.657   2.114
 3799SOL    HW222077   8.187   4.514   2.179
 3800SOL     OW22078   6.473   7.384   3.119
 3800SOL    HW122079   6.438   7.369   3.211
 3800SOL    HW222080   6.443   7.310   3.059
 3801SOL     OW22081   0.447   9.996   2.137
 3801SOL    HW122082   0.503   9.922   2.174
 3801SOL    HW222083   0.424   0.061   2.209
 3802SOL     OW22084   3.115   9.427   3.035
 3802SOL    HW122085   3.107   9.512   2.983
 3802SOL    HW222086   3.086   9.350   2.978
 3803SOL     OW22087   3.440   6.126   0.403
 3803SOL    HW122088   3.391   6.208   0.375
 3803SOL    HW222089   3.430   6.055   0.334
 3804SOL     OW22090   8.444   1.650   2.221
 3804SOL    HW122091   8.447   1.655   2.321
 3804SOL    HW222092   8.481   1.735   2.182
 3805SOL     OW22093   1.102   7.985   3.431
 3805SOL    HW122094   1.138   8.075   3.407
 3805SOL    HW222095   1.100   7.927   3.350
 3806SOL     OW22096   4.701   2.691   3.714
 3806SOL    HW122097   4.701   2.683   3.615
 3806SOL    HW222098   4.696   2.787   3.740
 3807SOL     OW22099   7.827   3.754   0.631
 3807SOL    HW122100   7.805   3.814   0.554
 3807SOL    HW222101   7.910   3.788   0.676
 3808SOL     OW22102   8.435   5.808   2.974
 3808SOL    HW122103   8.452   5.726   2.919
 3808SOL    HW222104   8.444   5.784   3.071
 3809SOL     OW22105   9.587   9.478   1.820
 3809SOL    HW122106   9.639   9.423   1.754
 3809SOL    HW222107   9.542   9.554   1.772
 3810SOL     OW22108   8.664   9.373   0.196
 3810SOL    HW122109   8.631   9.455   0.149
 3810SOL    HW222110   8.690   9.397   0.290
 3811SOL     OW22111   6.133   0.945   4.333
 3811SOL    HW122112   6.207   0.880   4.348
 3811SOL    HW222113   6.170   1.038   4.336
 3812SOL     OW22114   7.118   7.418   4.042
 3812SOL    HW122115   7.022   7.400   4.065
 3812SOL    HW222116   7.153   7.344   3.985
 3813SOL     OW22117   0.183   0.952   3.651
 3813SOL    HW122118   0.107   0.887   3.643
 3813SOL    HW222119   0.259   0.908   3.699
 3814SOL     OW22120   2.986   1.172   4.282
 3814SOL    HW122121   2.924   1.166   4.360
 3814SOL    HW222122   2.935   1.198   4.200
 3815SOL     OW22123   1.791   2.507   0.771
 3815SOL    HW122124   1.725   2.580   0.751
 3815SOL    HW222125   1.785   2.436   0.701
 3816SOL     OW22126   6.138   9.614   3.136
 3816SOL    HW122127   6.167   9.569   3.052
 3816SOL    HW222128   6.069   9.558   3.182
 3817SOL     OW22129   9.919   5.677   0.153
 3817SOL    HW122130   9.852   5.738   0.110
 3817SOL    HW222131   9.988   5.731   0.200
 3818SOL     OW22132   9.206   8.177   0.178
 3818SOL    HW122133   9.303   8.162   0.160
 3818SOL    HW222134   9.174   8.254   0.123
 3819SOL     OW22135   3.966   1.064   0.956
 3819SOL    HW122136   4.014   1.127   0.895
 3819SOL    HW222137   3.982   0.970   0.927
 3820SOL     OW22138   3.284   1.436   3.898
 3820SOL    HW122139   3.327   1.348   3.918
 3820SOL    HW222140   3.282   1.451   3.799
 3821SOL     OW22141   3.449   0.563   0.482
 3821SOL    HW122142   3.459   0.656   0.446
 3821SOL    HW222143   3.464   0.498   0.407
 3822SOL     OW22144   9.113   6.427   2.676
 3822SOL    HW122145   9.124   6.331   2.701
 3822SOL    HW222146   9.026   6.461   2.712
 3823SOL     OW22147   2.451   5.936   1.562
 3823SOL    HW122148   2.377   5.875   1.533
 3823SOL    HW222149   2.466   5.924   1.660
 3824SOL     OW22150   6.532   0.088   4.344
 3824SOL    HW122151   6.493   9.996   4.334
 3824SOL    HW222152   6.558   0.123   4.254
 3825SOL     OW22153   0.009   7.595   2.354
 3825SOL    HW122154   0.016   7.580   2.453
 3825SOL    HW222155   9.973   7.687   2.337
 3826SOL     OW22156   2.430   4.577   0.509
 3826SOL    HW122157   2.352   4.571   0.446
 3826SOL    HW222158   2.400   4.619   0.595
 3827SOL     OW22159   1.884   6.224   2.329
 3827SOL    HW122160   1.896   6.125   2.315
 3827SOL    HW222161   1.798   6.254   2.288
 3828SOL     OW22162   8.933   1.211   1.564
 3828SOL    HW122163   8.855   1.246   1.616
 3828SOL    HW222164   8.908   1.124   1.521
 3829SOL     OW22165   9.524   8.554   1.832
 3829SOL    HW122166   9.526   8.626   1.902
 3829SOL    HW222167   9.486   8.471   1.871
 3830SOL     OW22168   4.378   0.281   3.072
 3830SOL    HW122169   4.389   0.209   3.140
 3830SOL    HW222170   4.455   0.346   3.078
 3831SOL     OW22171   3.913   8.404   1.160
 3831SOL    HW122172   3.818   8.435   1.165
 3831SOL    HW222173   3.966   8.449   1.232
 3832SOL     OW22174   9.179   3.117   2.745
 3832SOL    HW122175   9.143   3.066   2.824
 3832SOL    HW222176   9.179   3.215   2.766
 3833SOL     OW22177   1.338   0.158   1.098
 3833SOL    HW122178   1.301   0.128   1.010
 3833SOL    HW222179   1.404   0.232   1.082
 3834SOL     OW22180   7.526   1.664   3.862
 3834SOL    HW122181   7.452   1.709   3.811
 3834SOL    HW222182   7.504   1.567   3.874
 3835SOL     OW22183   7.686   9.259   2.169
 3835SOL    HW122184   7.731   9.338   2.128
 3835SOL    HW222185   7.609   9.231   2.111
 3836SOL     OW22186   5.548   0.209   1.051
 3836SOL    HW122187   5.527   0.121   1.094
 3836SOL    HW222188   5.626   0.199   0.990
 3837SOL     OW22189   3.066   8.731   3.792
 3837SOL    HW122190   3.016   8.798   3.738
 3837SOL    HW222191   3.036   8.735   3.887
 3838SOL     OW22192   9.796   1.889   0.938
 3838SOL    HW122193   9.895   1.901   0.945
 3838SOL    HW222194   9.767   1.901   0.843
 3839SOL     OW22195   9.241   6.450   0.416
 3839SOL    HW122196   9.197   6.364   0.389
 3839SOL    HW222197   9.171   6.513   0.451
 3840SOL     OW22198   8.175   0.104   3.740
 3840SOL    HW122199   8.190   0.185   3.797
 3840SOL    HW222200   8.086   0.063   3.764
 3841SOL     OW22201   1.474   7.375   0.396
 3841SOL    HW122202   1.395   7.437   0.394
 3841SOL    HW222203   1.445   7.284   0.368
 3842SOL     OW22204   3.367   7.042   2.235
 3842SOL    HW122205   3.293   7.086   2.184
 3842SOL    HW222206   3.344   6.946   2.251
 3843SOL     OW22207   5.828   1.506   2.521
 3843SOL    HW122208   5.769   1.455   2.584
 3843SOL    HW222209   5.829   1.461   2.432
 3844SOL     OW22210   1.324   9.195   1.265
 3844SOL    HW122211   1.369   9.162   1.347
 3844SOL    HW222212   1.292   9.118   1.210
 3845SOL     OW22213   8.799   0.940   0.662
 3845SOL    HW122214   8.899   0.948   0.664
 3845SOL    HW222215   8.774   0.850   0.626
 3846SOL     OW22216   4.089   9.648   0.935
 3846SOL    HW122217   3.996   9.666   0.968
 3846SOL    HW222218   4.114   9.553   0.953
 3847SOL     OW22219   2.705   6.403   3.877
 3847SOL    HW122220   2.646   6.324   3.862
 3847SOL    HW222221   2.785   6.396   3.817
 3848SOL     OW22222   1.103   7.837   3.204
 3848SOL    HW122223   1.027   7.843   3.140
 3848SOL    HW222224   1.189   7.855   3.157
 3849SOL     OW22225   9.054   9.807   0.165
 3849SOL    HW122226   8.988   9.823   0.238
 3849SOL    HW222227   9.147   9.805   0.204
 3850SOL     OW22228   4.991   3.835   0.337
 3850SOL    HW122229   5.056   3.852   0.262
 3850SOL    HW222230   4.905   3.803   0.299
 3851SOL     OW22231   7.201   9.456   1.608
 3851SOL    HW122232   7.297   9.465   1.636
 3851SOL    HW222233   7.158   9.546   1.607
 3852SOL     OW22234   3.131   6.281   1.747
 3852SOL    HW122235   3.045   6.264   1.795
 3852SOL    HW222236   3.195   6.206   1.766
 3853SOL     OW22237   8.802   5.982   2.918
 3853SOL    HW122238   8.798   5.884   2.897
 3853SOL    HW222239   8.861   5.997   2.996
 3854SOL     OW22240   9.500   9.188   0.452
 3854SOL    HW122241   9.559   9.117   0.492
 3854SOL    HW222242   9.430   9.144   0.395
 3855SOL     OW22243   3.403   8.948   0.727
 3855SOL    HW122244   3.496   8.981   0.714
 3855SOL    HW222245   3.345   8.981   0.652
 3856SOL     OW22246   8.799   0.312   4.246
 3856SOL    HW122247   8.765   0.404   4.227
 3856SOL    HW222248   8.753   0.275   4.327
 3857SOL     OW22249   3.303   1.665   1.753
 3857SOL    HW122250   3.358   1.719   1.815
 3857SOL    HW222251   3.354   1.584   1.724
 3858SOL     OW22252   1.811   4.502   1.265
 3858SOL    HW122253   1.818   4.415   1.216
 3858SOL    HW222254   1.845   4.575   1.207
 3859SOL     OW22255   5.719   9.454   4.257
 3859SOL    HW122256   5.747   9.523   4.190
 3859SOL    HW222257   5.619   9.451   4.261
 3860SOL     OW22258   4.371   8.575   2.446
 3860SOL    HW122259   4.428   8.563   2.527
 3860SOL    HW222260   4.280   8.605   2.473
 3861SOL     OW22261   2.127   3.950   1.891
 3861SOL    HW122262   2.092   4.008   1.964
 3861SOL    HW222263   2.225   3.966   1.879
 3862SOL     OW22264   2.133   9.100   1.330
 3862SOL    HW122265   2.104   9.070   1.421
 3862SOL    HW222266   2.053   9.108   1.270
 3863SOL     OW22267   4.209   7.021   4.027
 3863SOL    HW122268   4.178   7.083   4.099
 3863SOL    HW222269   4.206   7.068   3.939
 3864SOL     OW22270   9.538   2.822   3.454
 3864SOL    HW122271   9.438   2.823   3.450
 3864SOL    HW222272   9.568   2.794   3.545
 3865SOL     OW22273   1.778   0.939   4.366
 3865SOL    HW122274   1.723   0.897   4.294
 3865SOL    HW222275   1.793   0.872   4.439
 3866SOL     OW22276   2.803   4.345   0.436
 3866SOL    HW122277   2.901   4.357   0.448
 3866SOL    HW222278   2.761   4.324   0.525
 3867SOL     OW22279   2.551   8.640   4.068
 3867SOL    HW122280   2.586   8.732   4.047
 3867SOL    HW222281   2.529   8.635   4.165
 3868SOL     OW22282   4.276   6.146   2.036
 3868SOL    HW122283   4.191   6.094   2.031
 3868SOL    HW222284   4.323   6.142   1.948
 3869SOL     OW22285   6.196   7.861   2.706
 3869SOL    HW122286   6.096   7.856   2.702
 3869SOL    HW222287   6.228   7.939   2.653
 3870SOL     OW22288   0.479   8.265   3.723
 3870SOL    HW122289   0.492   8.244   3.626
 3870SOL    HW222290   0.426   8.192   3.766
 3871SOL     OW22291   2.714   3.367   1.892
 3871SOL    HW122292   2.732   3.408   1.981
 3871SOL    HW222293   2.683   3.437   1.828
 3872SOL     OW22294   6.852   7.716   3.731
 3872SOL    HW122295   6.826   7.621   3.719
 3872SOL    HW222296   6.773   7.769   3.764
 3873SOL     OW22297   4.058   4.348   1.957
 3873SOL    HW122298   3.972   4.296   1.959
 3873SOL    HW222299   4.105   4.332   1.870
 3874SOL     OW22300   3.176   5.677   2.090
 3874SOL    HW122301   3.234   5.744   2.138
 3874SOL    HW222302   3.101   5.725   2.045
 3875SOL     OW22303   5.561   3.700   0.356
 3875SOL    HW122304   5.484   3.763   0.345
 3875SOL    HW222305   5.644   3.753   0.373
 3876SOL     OW22306   4.906   0.615   4.005
 3876SOL    HW122307   4.900   0.621   3.906
 3876SOL    HW222308   4.819   0.582   4.042
 3877SOL     OW22309   7.493   9.417   1.866
 3877SOL    HW122310   7.501   9.473   1.948
 3877SOL    HW222311   7.482   9.321   1.891
 3878SOL     OW22312   0.802   5.378   1.465
 3878SOL    HW122313   0.737   5.338   1.401
 3878SOL    HW222314   0.862   5.306   1.501
 3879SOL     OW22315   4.344   8.421   1.592
 3879SOL    HW122316   4.272   8.383   1.533
 3879SOL    HW222317   4.309   8.503   1.637
 3880SOL     OW22318   4.168   1.580   0.728
 3880SOL    HW122319   4.103   1.600   0.654
 3880SOL    HW222320   4.126   1.517   0.793
 3881SOL     OW22321   1.267   4.872   2.438
 3881SOL    HW122322   1.305   4.820   2.514
 3881SOL    HW222323   1.199   4.817   2.390
 3882SOL     OW22324   3.485   9.353   3.720
 3882SOL    HW122325   3.524   9.262   3.701
 3882SOL    HW222326   3.482   9.406   3.635
 3883SOL     OW22327   3.817   0.700   0.982
 3883SOL    HW122328   3.880   0.654   1.044
 3883SOL    HW222329   3.742   0.637   0.958
 3884SOL     OW22330   5.483   1.476   3.964
 3884SOL    HW122331   5.425   1.395   3.957
 3884SOL    HW222332   5.565   1.462   3.910
 3885SOL     OW22333   1.594   0.003   0.258
 3885SOL    HW122334   1.673   0.064   0.255
 3885SOL    HW222335   1.622   9.911   0.230
 3886SOL     OW22336   8.585   4.658   3.380
 3886SOL    HW122337   8.676   4.647   3.340
 3886SOL    HW222338   8.522   4.592   3.338
 3887SOL     OW22339   4.079   1.408   2.278
 3887SOL    HW122340   4.172   1.434   2.303
 3887SOL    HW222341   4.073   1.308   2.271
 3888SOL     OW22342   4.642   9.607   0.541
 3888SOL    HW122343   4.607   9.518   0.571
 3888SOL    HW222344   4.670   9.661   0.620
 3889SOL     OW22345   8.429   0.693   2.849
 3889SOL    HW122346   8.507   0.671   2.791
 3889SOL    HW222347   8.442   0.652   2.939
 3890SOL     OW22348   6.581   1.602   3.374
 3890SOL    HW122349   6.499   1.624   3.321
 3890SOL    HW222350   6.627   1.687   3.401
 3891SOL     OW22351   4.298   7.265   1.502
 3891SOL    HW122352   4.384   7.271   1.552
 3891SOL    HW222353   4.233   7.209   1.554
 3892SOL     OW22354   0.588   1.866   2.451
 3892SOL    HW122355   0.522   1.799   2.483
 3892SOL    HW222356   0.615   1.844   2.357
 3893SOL     OW22357   3.381   9.955   0.897
 3893SOL    HW122358   3.396   0.041   0.946
 3893SOL    HW222359   3.443   9.950   0.819
 3894SOL     OW22360   9.499   7.426   1.418
 3894SOL    HW122361   9.499   7.363   1.340
 3894SOL    HW222362   9.511   7.520   1.386
 3895SOL     OW22363   4.323   3.960   0.244
 3895SOL    HW122364   4.237   3.937   0.290
 3895SOL    HW222365   4.304   4.025   0.171
 3896SOL     OW22366   7.927   3.505   1.396
 3896SOL    HW122367   7.952   3.552   1.311
 3896SOL    HW222368   7.947   3.408   1.388
 3897SOL     OW22369   9.280   8.926   3.326
 3897SOL    HW122370   9.278   8.871   3.410
 3897SOL    HW222371   9.188   8.933   3.289
 3898SOL     OW22372   1.157   6.791   3.880
 3898SOL    HW122373   1.128   6.701   3.849
 3898SOL    HW222374   1.147   6.857   3.805
 3899SOL     OW22375   1.870   8.305   1.625
 3899SOL    HW122376   1.892   8.367   1.700
 3899SOL    HW222377   1.955   8.275   1.581
 3900SOL     OW22378   9.377   0.813   3.989
 3900SOL    HW122379   9.323   0.880   4.039
 3900SOL    HW222380   9.378   0.726   4.039
 3901SOL     OW22381   4.212   8.500   4.323
 3901SOL    HW122382   4.220   8.576   4.387
 3901SOL    HW222383   4.115   8.479   4.309
 3902SOL     OW22384   1.149   0.920   1.122
 3902SOL    HW122385   1.136   0.824   1.099
 3902SOL    HW222386   1.239   0.950   1.089
 3903SOL     OW22387   0.286   4.960   1.557
 3903SOL    HW122388   0.312   4.873   1.517
 3903SOL    HW222389   0.338   5.034   1.514
 3904SOL     OW22390   0.955   4.307   2.114
 3904SOL    HW122391   0.887   4.234   2.106
 3904SOL    HW222392   1.000   4.301   2.203
 3905SOL     OW22393   1.727   2.202   0.159
 3905SOL    HW122394   1.768   2.253   0.235
 3905SOL    HW222395   1.665   2.133   0.196
 3906SOL     OW22396   2.174   6.000   3.808
 3906SOL    HW122397   2.146   6.044   3.723
 3906SOL    HW222398   2.147   6.057   3.886
 3907SOL     OW22399   2.764   3.491   2.484
 3907SOL    HW122400   2.764   3.578   2.434
 3907SOL    HW222401   2.841   3.435   2.455
 3908SOL     OW22402   4.800   1.077   3.735
 3908SOL    HW122403   4.714   1.029   3.755
 3908SOL    HW222404   4.810   1.087   3.636
 3909SOL     OW22405   9.789   5.163   2.558
 3909SOL    HW122406   9.725   5.149   2.633
 3909SOL    HW222407   9.786   5.084   2.497
 3910SOL     OW22408   0.408   0.454   2.811
 3910SOL    HW122409   0.349   0.501   2.877
 3910SOL    HW222410   0.497   0.435   2.853
 3911SOL     OW22411   9.968   1.257   1.324
 3911SOL    HW122412   9.974   1.352   1.355
 3911SOL    HW222413   9.971   1.255   1.224
 3912SOL     OW22414   1.609   0.855   1.706
 3912SOL    HW122415   1.520   0.850   1.662
 3912SOL    HW222416   1.601   0.830   1.802
 3913SOL     OW22417   7.387   3.185   0.188
 3913SOL    HW122418   7.323   3.154   0.118
 3913SOL    HW222419   7.478   3.151   0.167
 3914SOL     OW22420   9.361   0.900   1.958
 3914SOL    HW122421   9.274   0.941   1.986
 3914SOL    HW222422   9.409   0.864   2.039
 3915SOL     OW22423   5.714   8.205   3.847
 3915SOL    HW122424   5.794   8.182   3.791
 3915SOL    HW222425   5.631   8.175   3.799
 3916SOL     OW22426   2.439   9.604   0.717
 3916SOL    HW122427   2.475   9.540   0.649
 3916SOL    HW222428   2.340   9.592   0.725
 3917SOL     OW22429   3.840   0.639   3.007
 3917SOL    HW122430   3.787   0.718   3.038
 3917SOL    HW222431   3.930   0.641   3.050
 3918SOL     OW22432   2.542   7.495   1.262
 3918SOL    HW122433   2.633   7.533   1.278
 3918SOL    HW222434   2.536   7.405   1.305
 3919SOL     OW22435   9.984   3.226   3.198
 3919SOL    HW122436   0.061   3.163   3.209
 3919SOL    HW222437   9.922   3.216   3.276
 3920SOL     OW22438   8.171   4.294   0.751
 3920SOL    HW122439   8.093   4.343   0.789
 3920SOL    HW222440   8.253   4.351   0.756
 3921SOL     OW22441   0.819   7.613   0.078
 3921SOL    HW122442   0.879   7.678   0.125
 3921SOL    HW222443   0.830   7.624   5.613
 3922SOL     OW22444   7.779   8.151   2.761
 3922SOL    HW122445   7.776   8.074   2.697
 3922SOL    HW222446   7.856   8.210   2.738
 3923SOL     OW22447   3.255   7.903   4.136
 3923SOL    HW122448   3.215   7.859   4.056
 3923SOL    HW222449   3.191   7.971   4.172
 3924SOL     OW22450   0.649   6.326   3.878
 3924SOL    HW122451   0.668   6.247   3.936
 3924SOL    HW222452   0.563   6.368   3.907
 3925SOL     OW22453   2.712   0.913   3.617
 3925SOL    HW122454   2.730   0.860   3.700
 3925SOL    HW222455   2.679   0.852   3.545
 3926SOL     OW22456   1.131   2.513   0.920
 3926SOL    HW122457   1.079   2.598   0.935
 3926SOL    HW222458   1.076   2.435   0.950
 3927SOL     OW22459   8.205   0.566   3.148
 3927SOL    HW122460   8.156   0.479   3.145
 3927SOL    HW222461   8.159   0.628   3.212
 3928SOL     OW22462   0.561   1.964   1.652
 3928SOL    HW122463   0.569   1.953   1.553
 3928SOL    HW222464   0.602   2.052   1.679
 3929SOL     OW22465   4.451   8.794   4.225
 3929SOL    HW122466   4.468   8.698   4.248
 3929SOL    HW222467   4.353   8.812   4.229
 3930SOL     OW22468   0.802   7.553   0.822
 3930SOL    HW122469   0.738   7.503   0.879
 3930SOL    HW222470   0.787   7.529   0.726
 3931SOL     OW22471   3.180   1.660   2.298
 3931SOL    HW122472   3.124   1.592   2.345
 3931SOL    HW222473   3.205   1.732   2.362
 3932SOL     OW22474   8.885   3.544   2.603
 3932SOL    HW122475   8.934   3.595   2.674
 3932SOL    HW222476   8.849   3.460   2.642
 3933SOL     OW22477   2.621   6.759   3.624
 3933SOL    HW122478   2.680   6.839   3.637
 3933SOL    HW222479   2.603   6.716   3.712
 3934SOL     OW22480   3.270   7.036   3.741
 3934SOL    HW122481   3.338   6.986   3.688
 3934SOL    HW222482   3.274   7.133   3.717
 3935SOL     OW22483   5.244   0.088   1.603
 3935SOL    HW122484   5.275   0.183   1.593
 3935SOL    HW222485   5.284   0.049   1.686
 3936SOL     OW22486   2.351   6.328   3.997
 3936SOL    HW122487   2.353   6.426   3.979
 3936SOL    HW222488   2.410   6.281   3.931
 3937SOL     OW22489   2.354   6.645   1.347
 3937SOL    HW122490   2.286   6.603   1.407
 3937SOL    HW222491   2.355   6.596   1.259
 3938SOL     OW22492   9.585   9.465   2.641
 3938SOL    HW122493   9.605   9.482   2.738
 3938SOL    HW222494   9.562   9.551   2.597
 3939SOL     OW22495   5.809   0.621   4.356
 3939SOL    HW122496   5.874   0.555   4.318
 3939SOL    HW222497   5.716   0.583   4.350
 3940SOL     OW22498   7.995   1.965   1.893
 3940SOL    HW122499   7.987   2.035   1.822
 3940SOL    HW222500   7.993   1.874   1.851
 3941SOL     OW22501   3.860   2.073   1.959
 3941SOL    HW122502   3.880   2.046   2.054
 3941SOL    HW222503   3.764   2.102   1.953
 3942SOL     OW22504   1.407   4.820   1.819
 3942SOL    HW122505   1.377   4.881   1.892
 3942SOL    HW222506   1.365   4.730   1.831
 3943SOL     OW22507   2.600   8.510   1.948
 3943SOL    HW122508   2.567   8.598   1.981
 3943SOL    HW222509   2.623   8.452   2.026
 3944SOL     OW22510   3.159   4.195   1.476
 3944SOL    HW122511   3.086   4.177   1.411
 3944SOL    HW222512   3.214   4.113   1.489
 3945SOL     OW22513   4.312   3.339   3.971
 3945SOL    HW122514   4.396   3.371   3.927
 3945SOL    HW222515   4.318   3.354   4.069
 3946SOL     OW22516   0.759   4.489   1.415
 3946SOL    HW122517   0.810   4.491   1.500
 3946SOL    HW222518   0.708   4.575   1.405
 3947SOL     OW22519   4.501   8.256   3.762
 3947SOL    HW122520   4.521   8.167   3.721
 3947SOL    HW222521   4.420   8.295   3.718
 3948SOL     OW22522   8.085   8.520   2.504
 3948SOL    HW122523   8.074   8.600   2.444
 3948SOL    HW222524   8.140   8.545   2.583
 3949SOL     OW22525   3.114   1.006   1.197
 3949SOL    HW122526   3.129   0.942   1.273
 3949SOL    HW222527   3.165   0.975   1.117
 3950SOL     OW22528   0.703   9.139   1.463
 3950SOL    HW122529   0.652   9.065   1.506
 3950SOL    HW222530   0.640   9.212   1.436
 3951SOL     OW22531   8.236   2.026   2.306
 3951SOL    HW122532   8.147   2.060   2.336
 3951SOL    HW222533   8.233   2.007   2.208
 3952SOL     OW22534   8.530   4.332   2.734
 3952SOL    HW122535   8.514   4.413   2.677
 3952SOL    HW222536   8.481   4.254   2.696
 3953SOL     OW22537   9.354   9.612   3.892
 3953SOL    HW122538   9.384   9.704   3.867
 3953SOL    HW222539   9.254   9.609   3.896
 3954SOL     OW22540   4.048   0.556   0.225
 3954SOL    HW122541   4.082   0.497   0.298
 3954SOL    HW222542   3.951   0.537   0.210
 3955SOL     OW22543   0.911   6.615   1.829
 3955SOL    HW122544   0.903   6.549   1.754
 3955SOL    HW222545   0.866   6.701   1.803
 3956SOL     OW22546   0.787   4.744   2.489
 3956SOL    HW122547   0.822   4.651   2.491
 3956SOL    HW222548   0.742   4.764   2.576
 3957SOL     OW22549   2.625   2.447   0.368
 3957SOL    HW122550   2.582   2.374   0.421
 3957SOL    HW222551   2.648   2.413   0.277
 3958SOL     OW22552   6.245   8.615   2.130
 3958SOL    HW122553   6.185   8.545   2.092
 3958SOL    HW222554   6.311   8.644   2.060
 3959SOL     OW22555   3.332   4.334   1.049
 3959SOL    HW122556   3.391   4.412   1.027
 3959SOL    HW222557   3.389   4.258   1.081
 3960SOL     OW22558   2.142   9.819   4.358
 3960SOL    HW122559   2.104   9.748   4.298
 3960SOL    HW222560   2.186   9.776   4.436
 3961SOL     OW22561   1.806   7.485   0.125
 3961SOL    HW122562   1.799   7.454   0.030
 3961SOL    HW222563   1.884   7.546   0.135
 3962SOL     OW22564   7.800   1.551   1.568
 3962SOL    HW122565   7.725   1.515   1.624
 3962SOL    HW222566   7.763   1.583   1.480
 3963SOL     OW22567   4.651   5.174   0.759
 3963SOL    HW122568   4.650   5.163   0.858
 3963SOL    HW222569   4.638   5.270   0.736
 3964SOL     OW22570   8.379   2.388   4.065
 3964SOL    HW122571   8.446   2.459   4.041
 3964SOL    HW222572   8.406   2.346   4.152
 3965SOL     OW22573   3.565   2.521   1.308
 3965SOL    HW122574   3.528   2.444   1.257
 3965SOL    HW222575   3.618   2.580   1.247
 3966SOL     OW22576   8.071   3.571   4.239
 3966SOL    HW122577   8.045   3.477   4.260
 3966SOL    HW222578   7.999   3.634   4.268
 3967SOL     OW22579   8.626   4.981   4.283
 3967SOL    HW122580   8.622   4.930   4.197
 3967SOL    HW222581   8.679   5.065   4.270
 3968SOL     OW22582   9.861   8.191   4.110
 3968SOL    HW122583   9.880   8.244   4.027
 3968SOL    HW222584   9.939   8.198   4.172
 3969SOL     OW22585   6.442   0.754   1.426
 3969SOL    HW122586   6.394   0.668   1.410
 3969SOL    HW222587   6.418   0.790   1.515
 3970SOL     OW22588   1.811   6.515   0.637
 3970SOL    HW122589   1.750   6.524   0.558
 3970SOL    HW222590   1.900   6.481   0.606
 3971SOL     OW22591   0.251   9.501   3.811
 3971SOL    HW122592   0.241   9.404   3.832
 3971SOL    HW222593   0.340   9.533   3.843
 3972SOL     OW22594   0.595   5.574   2.134
 3972SOL    HW122595   0.672   5.591   2.196
 3972SOL    HW222596   0.564   5.661   2.096
 3973SOL     OW22597   0.545   7.487   2.254
 3973SOL    HW122598   0.578   7.447   2.340
 3973SOL    HW222599   0.445   7.479   2.250
 3974SOL     OW22600   1.714   7.832   0.792
 3974SOL    HW122601   1.619   7.854   0.812
 3974SOL    HW222602   1.720   7.785   0.704
 3975SOL     OW22603   8.523   1.346   2.494
 3975SOL    HW122604   8.583   1.271   2.521
 3975SOL    HW222605   8.428   1.316   2.501
 3976SOL     OW22606   6.779   8.342   3.280
 3976SOL    HW122607   6.690   8.358   3.321
 3976SOL    HW222608   6.782   8.382   3.189
 3977SOL     OW22609   7.830   0.428   2.614
 3977SOL    HW122610   7.866   0.506   2.666
 3977SOL    HW222611   7.834   0.449   2.516
 3978SOL     OW22612   0.824   3.424   1.598
 3978SOL    HW122613   0.803   3.433   1.501
 3978SOL    HW222614   0.903   3.365   1.610
 3979SOL     OW22615   6.386   6.903   3.069
 3979SOL    HW122616   6.402   6.857   2.982
 3979SOL    HW222617   6.289   6.901   3.091
 3980SOL     OW22618   7.449   2.757   1.258
 3980SOL    HW122619   7.456   2.851   1.293
 3980SOL    HW222620   7.413   2.697   1.329
 3981SOL     OW22621   7.883   0.503   2.360
 3981SOL    HW122622   7.983   0.516   2.358
 3981SOL    HW222623   7.844   0.530   2.272
 3982SOL     OW22624   4.678   3.823   0.994
 3982SOL    HW122625   4.642   3.914   1.012
 3982SOL    HW222626   4.604   3.764   0.962
 3983SOL     OW22627   9.818   2.771   3.061
 3983SOL    HW122628   9.793   2.776   3.158
 3983SOL    HW222629   9.818   2.675   3.032
 3984SOL     OW22630   9.906   4.489   1.333
 3984SOL    HW122631   9.840   4.539   1.389
 3984SOL    HW222632   9.905   4.527   1.240
 3985SOL     OW22633   9.519   0.773   3.005
 3985SOL    HW122634   9.600   0.776   2.947
 3985SOL    HW222635   9.534   0.830   3.086
 3986SOL     OW22636   9.066   9.556   1.834
 3986SOL    HW122637   9.136   9.528   1.900
 3986SOL    HW222638   9.076   9.654   1.815
 3987SOL     OW22639   4.290   7.571   1.702
 3987SOL    HW122640   4.217   7.553   1.769
 3987SOL    HW222641   4.251   7.571   1.610
 3988SOL     OW22642   1.494   7.786   1.144
 3988SOL    HW122643   1.585   7.749   1.166
 3988SOL    HW222644   1.435   7.781   1.224
 3989SOL     OW22645   1.756   5.351   2.615
 3989SOL    HW122646   1.763   5.403   2.530
 3989SOL    HW222647   1.665   5.362   2.654
 3990SOL     OW22648   0.216   1.803   3.036
 3990SOL    HW122649   0.141   1.746   3.070
 3990SOL    HW222650   0.278   1.825   3.111
 3991SOL     OW22651   9.380   4.579   1.852
 3991SOL    HW122652   9.292   4.566   1.897
 3991SOL    HW222653   9.428   4.491   1.845
 3992SOL     OW22654   0.460   6.849   3.949
 3992SOL    HW122655   0.559   6.843   3.936
 3992SOL    HW222656   0.429   6.773   4.005
 3993SOL     OW22657   0.167   2.877   3.487
 3993SOL    HW122658   0.165   2.779   3.506
 3993SOL    HW222659   0.253   2.916   3.521
 3994SOL     OW22660   2.718   5.456   1.466
 3994SOL    HW122661   2.632   5.507   1.470
 3994SOL    HW222662   2.717   5.383   1.535
 3995SOL     OW22663   0.335   1.248   1.253
 3995SOL    HW122664   0.258   1.312   1.256
 3995SOL    HW222665   0.329   1.185   1.330
 3996SOL     OW22666   4.927   1.110   3.966
 3996SOL    HW122667   4.878   1.094   3.880
 3996SOL    HW222668   4.960   1.024   4.004
 3997SOL     OW22669   8.665   7.848   0.361
 3997SOL    HW122670   8.698   7.926   0.307
 3997SOL    HW222671   8.681   7.866   0.458
 3998SOL     OW22672   1.694   7.200   0.620
 3998SOL    HW122673   1.738   7.204   0.530
 3998SOL    HW222674   1.655   7.290   0.642
 3999SOL     OW22675   8.792   5.163   0.222
 3999SOL    HW122676   8.882   5.205   0.209
 3999SOL    HW222677   8.724   5.213   0.168
 4000SOL     OW22678   7.956   2.847   3.439
 4000SOL    HW122679   7.861   2.879   3.442
 4000SOL    HW222680   7.971   2.781   3.512
 4001SOL     OW22681   9.628   0.139   3.128
 4001SOL    HW122682   9.704   0.151   3.064
 4001SOL    HW222683   9.603   0.228   3.167
 4002SOL     OW22684   4.506   2.091   3.762
 4002SOL    HW122685   4.530   2.158   3.692
 4002SOL    HW222686   4.443   2.132   3.828
 4003SOL     OW22687   2.492   9.082   4.250
 4003SOL    HW122688   2.452   9.173   4.258
 4003SOL    HW222689   2.418   9.014   4.251
 4004SOL     OW22690   8.717   5.039   3.433
 4004SOL    HW122691   8.662   5.027   3.515
 4004SOL    HW222692   8.800   5.089   3.455
 4005SOL     OW22693   0.518   0.907   2.078
 4005SOL    HW122694   0.509   0.933   1.982
 4005SOL    HW222695   0.443   0.947   2.131
 4006SOL     OW22696   1.553   5.119   3.641
 4006SOL    HW122697   1.610   5.197   3.668
 4006SOL    HW222698   1.470   5.153   3.597
 4007SOL     OW22699   6.397   1.165   2.572
 4007SOL    HW122700   6.317   1.182   2.628
 4007SOL    HW222701   6.393   1.221   2.489
 4008SOL     OW22702   0.511   0.340   1.325
 4008SOL    HW122703   0.468   0.263   1.277
 4008SOL    HW222704   0.514   0.420   1.265
 4009SOL     OW22705   0.046   6.495   2.085
 4009SOL    HW122706   0.079   6.409   2.123
 4009SOL    HW222707   9.948   6.487   2.065
 4010SOL     OW22708   4.740   8.303   3.362
 4010SOL    HW122709   4.827   8.256   3.377
 4010SOL    HW222710   4.757   8.394   3.324
 4011SOL     OW22711   4.104   3.886   2.340
 4011SOL    HW122712   4.057   3.810   2.385
 4011SOL    HW222713   4.038   3.957   2.316
 4012SOL     OW22714   5.960   8.488   3.331
 4012SOL    HW122715   5.945   8.535   3.418
 4012SOL    HW222716   5.985   8.393   3.348
 4013SOL     OW22717   0.090   9.480   2.274
 4013SOL    HW122718   0.105   9.577   2.257
 4013SOL    HW222719   0.023   9.444   2.209
 4014SOL     OW22720   3.948   3.687   1.647
 4014SOL    HW122721   3.898   3.771   1.626
 4014SOL    HW222722   3.912   3.611   1.592
 4015SOL     OW22723   9.136   9.980   2.845
 4015SOL    HW122724   9.233   9.964   2.829
 4015SOL    HW222725   9.088   9.892   2.849
 4016SOL     OW22726   7.477   9.330   0.297
 4016SOL    HW122727   7.484   9.404   0.363
 4016SOL    HW222728   7.398   9.273   0.320
 4017SOL     OW22729   5.090   9.089   2.308
 4017SOL    HW122730   5.014   9.118   2.250
 4017SOL    HW222731   5.060   9.083   2.403
 4018SOL     OW22732   2.407   4.009   1.874
 4018SOL    HW122733   2.429   4.046   1.784
 4018SOL    HW222734   2.439   4.073   1.945
 4019SOL     OW22735   2.868   6.022   2.114
 4019SOL    HW122736   2.899   5.944   2.061
 4019SOL    HW222737   2.946   6.078   2.141
 4020SOL     OW22738   4.288   0.063   2.923
 4020SOL    HW122739   4.326   0.150   2.955
 4020SOL    HW222740   4.319   9.989   2.983
 4021SOL     OW22741   4.916   9.097   1.252
 4021SOL    HW122742   4.868   9.064   1.171
 4021SOL    HW222743   4.981   9.027   1.282
 4022SOL     OW22744   3.047   7.784   1.504
 4022SOL    HW122745   3.051   7.699   1.451
 4022SOL    HW222746   2.952   7.800   1.533
 4023SOL     OW22747   8.026   0.195   4.063
 4023SOL    HW122748   8.021   0.217   3.965
 4023SOL    HW222749   8.097   0.251   4.105
 4024SOL     OW22750   9.178   0.591   2.969
 4024SOL    HW122751   9.088   0.575   3.008
 4024SOL    HW222752   9.204   0.687   2.980
 4025SOL     OW22753   2.269   6.454   2.508
 4025SOL    HW122754   2.317   6.382   2.457
 4025SOL    HW222755   2.175   6.459   2.476
 4026SOL     OW22756   3.079   2.766   3.626
 4026SOL    HW122757   3.080   2.695   3.556
 4026SOL    HW222758   3.031   2.732   3.707
 4027SOL     OW22759   5.939   7.924   3.562
 4027SOL    HW122760   5.870   7.963   3.500
 4027SOL    HW222761   5.971   7.995   3.625
 4028SOL     OW22762   2.677   4.264   4.049
 4028SOL    HW122763   2.715   4.264   4.141
 4028SOL    HW222764   2.600   4.202   4.044
 4029SOL     OW22765   8.519   7.311   4.114
 4029SOL    HW122766   8.542   7.338   4.208
 4029SOL    HW222767   8.588   7.347   4.051
 4030SOL     OW22768   9.413   5.859   3.956
 4030SOL    HW122769   9.407   5.947   3.910
 4030SOL    HW222770   9.509   5.839   3.979
 4031SOL     OW22771   7.322   0.127   2.872
 4031SOL    HW122772   7.320   0.033   2.907
 4031SOL    HW222773   7.374   0.129   2.787
 4032SOL     OW22774   0.610   6.279   0.799
 4032SOL    HW122775   0.573   6.356   0.850
 4032SOL    HW222776   0.685   6.238   0.850
 4033SOL     OW22777   3.638   8.876   4.161
 4033SOL    HW122778   3.612   8.904   4.069
 4033SOL    HW222779   3.661   8.956   4.216
 4034SOL     OW22780   2.682   1.381   2.852
 4034SOL    HW122781   2.638   1.298   2.888
 4034SOL    HW222782   2.766   1.399   2.903
 4035SOL     OW22783   3.547   5.421   2.070
 4035SOL    HW122784   3.573   5.367   1.990
 4035SOL    HW222785   3.608   5.399   2.146
 4036SOL     OW22786   8.502   5.871   0.111
 4036SOL    HW122787   8.600   5.863   0.095
 4036SOL    HW222788   8.480   5.963   0.143
 4037SOL     OW22789   4.199   0.185   1.126
 4037SOL    HW122790   4.207   0.220   1.033
 4037SOL    HW222791   4.286   0.145   1.155
 4038SOL     OW22792   9.489   1.956   0.636
 4038SOL    HW122793   9.586   1.937   0.646
 4038SOL    HW222794   9.474   2.012   0.554
 4039SOL     OW22795   9.799   1.542   0.321
 4039SOL    HW122796   9.705   1.527   0.289
 4039SOL    HW222797   9.854   1.575   0.245
 4040SOL     OW22798   0.747   8.251   2.286
 4040SOL    HW122799   0.836   8.215   2.257
 4040SOL    HW222800   0.686   8.175   2.308
 4041SOL     OW22801   8.919   4.105   1.803
 4041SOL    HW122802   9.019   4.106   1.809
 4041SOL    HW222803   8.892   4.083   1.709
 4042SOL     OW22804   8.730   9.451   0.451
 4042SOL    HW122805   8.671   9.395   0.510
 4042SOL    HW222806   8.703   9.547   0.459
 4043SOL     OW22807   3.127   6.297   3.174
 4043SOL    HW122808   3.033   6.275   3.150
 4043SOL    HW222809   3.133   6.315   3.272
 4044SOL     OW22810   9.976   5.889   3.579
 4044SOL    HW122811   0.046   5.818   3.591
 4044SOL    HW222812   0.004   5.951   3.505
 4045SOL     OW22813   5.940   9.064   2.911
 4045SOL    HW122814   6.027   9.110   2.894
 4045SOL    HW222815   5.958   8.968   2.934
 4046SOL     OW22816   1.315   6.406   0.299
 4046SOL    HW122817   1.392   6.347   0.276
 4046SOL    HW222818   1.247   6.353   0.349
 4047SOL     OW22819   1.860   9.169   0.915
 4047SOL    HW122820   1.763   9.193   0.913
 4047SOL    HW222821   1.872   9.073   0.890
 4048SOL     OW22822   3.156   1.033   2.588
 4048SOL    HW122823   3.064   1.070   2.596
 4048SOL    HW222824   3.174   1.007   2.493
 4049SOL     OW22825   0.280   4.370   0.928
 4049SOL    HW122826   0.352   4.314   0.970
 4049SOL    HW222827   0.192   4.348   0.970
 4050SOL     OW22828   1.955   9.405   1.185
 4050SOL    HW122829   1.940   9.306   1.189
 4050SOL    HW222830   2.053   9.423   1.187
 4051SOL     OW22831   2.749   3.991   1.224
 4051SOL    HW122832   2.719   4.042   1.143
 4051SOL    HW222833   2.836   4.028   1.256
 4052SOL     OW22834   0.921   0.436   3.602
 4052SOL    HW122835   1.021   0.436   3.599
 4052SOL    HW222836   0.890   0.357   3.656
 4053SOL     OW22837   8.870   5.831   2.188
 4053SOL    HW122838   8.806   5.864   2.258
 4053SOL    HW222839   8.949   5.893   2.183
 4054SOL     OW22840   8.591   1.874   0.489
 4054SOL    HW122841   8.552   1.865   0.580
 4054SOL    HW222842   8.600   1.784   0.447
 4055SOL     OW22843   7.107   9.868   2.828
 4055SOL    HW122844   7.180   9.872   2.896
 4055SOL    HW222845   7.076   9.773   2.819
 4056SOL     OW22846   3.883   2.725   4.300
 4056SOL    HW122847   3.823   2.792   4.257
 4056SOL    HW222848   3.830   2.644   4.325
 4057SOL     OW22849   0.235   2.430   0.642
 4057SOL    HW122850   0.231   2.498   0.715
 4057SOL    HW222851   0.189   2.466   0.561
 4058SOL     OW22852   3.990   0.542   1.124
 4058SOL    HW122853   3.977   0.468   1.058
 4058SOL    HW222854   4.087   0.563   1.133
 4059SOL     OW22855   5.474   0.147   2.606
 4059SOL    HW122856   5.494   0.105   2.695
 4059SOL    HW222857   5.483   0.246   2.614
 4060SOL     OW22858   0.010   8.008   0.709
 4060SOL    HW122859   9.935   8.072   0.722
 4060SOL    HW222860   0.021   7.988   0.612
 4061SOL     OW22861   0.435   0.182   3.164
 4061SOL    HW122862   0.452   0.084   3.173
 4061SOL    HW222863   0.348   0.195   3.115
 4062SOL     OW22864   4.690   1.293   3.327
 4062SOL    HW122865   4.746   1.364   3.283
 4062SOL    HW222866   4.749   1.224   3.368
 4063SOL     OW22867   2.583   2.595   2.125
 4063SOL    HW122868   2.626   2.531   2.188
 4063SOL    HW222869   2.548   2.544   2.046
 4064SOL     OW22870   1.330   6.775   3.531
 4064SOL    HW122871   1.318   6.678   3.551
 4064SOL    HW222872   1.411   6.809   3.579
 4065SOL     OW22873   2.383   3.503   2.218
 4065SOL    HW122874   2.286   3.524   2.209
 4065SOL    HW222875   2.411   3.441   2.145
 4066SOL     OW22876   4.520   6.258   2.403
 4066SOL    HW122877   4.601   6.280   2.458
 4066SOL    HW222878   4.491   6.339   2.353
 4067SOL     OW22879   9.388   0.732   2.562
 4067SOL    HW122880   9.339   0.766   2.482
 4067SOL    HW222881   9.332   0.744   2.644
 4068SOL     OW22882   3.375   8.826   2.355
 4068SOL    HW122883   3.277   8.845   2.346
 4068SOL    HW222884   3.404   8.846   2.449
 4069SOL     OW22885   0.870   6.383   1.176
 4069SOL    HW122886   0.789   6.347   1.222
 4069SOL    HW222887   0.952   6.339   1.212
 4070SOL     OW22888   7.775   0.505   3.815
 4070SOL    HW122889   7.723   0.584   3.782
 4070SOL    HW222890   7.720   0.456   3.884
 4071SOL     OW22891   5.049   6.456   1.635
 4071SOL    HW122892   5.084   6.523   1.700
 4071SOL    HW222893   5.000   6.503   1.561
 4072SOL     OW22894   1.059   9.175   2.099
 4072SOL    HW122895   1.030   9.169   2.195
 4072SOL    HW222896   1.013   9.103   2.046
 4073SOL     OW22897   9.239   1.898   1.477
 4073SOL    HW122898   9.300   1.869   1.403
 4073SOL    HW222899   9.286   1.963   1.536
 4074SOL     OW22900   4.542   6.692   2.439
 4074SOL    HW122901   4.538   6.649   2.530
 4074SOL    HW222902   4.516   6.625   2.370
 4075SOL     OW22903   1.039   1.794   0.710
 4075SOL    HW122904   1.072   1.885   0.684
 4075SOL    HW222905   1.064   1.776   0.805
 4076SOL     OW22906   5.905   8.431   4.115
 4076SOL    HW122907   5.922   8.495   4.189
 4076SOL    HW222908   5.989   8.380   4.094
 4077SOL     OW22909   2.743   6.429   1.204
 4077SOL    HW122910   2.793   6.497   1.257
 4077SOL    HW222911   2.680   6.380   1.264
 4078SOL     OW22912   9.425   0.960   0.573
 4078SOL    HW122913   9.490   1.023   0.530
 4078SOL    HW222914   9.385   0.900   0.503
 4079SOL     OW22915   0.019   4.892   1.515
 4079SOL    HW122916   0.112   4.925   1.532
 4079SOL    HW222917   9.984   4.847   1.597
 4080SOL     OW22918   4.541   0.125   0.854
 4080SOL    HW122919   4.503   0.058   0.918
 4080SOL    HW222920   4.553   0.082   0.764
 4081SOL     OW22921   7.222   1.627   0.933
 4081SOL    HW122922   7.139   1.667   0.970
 4081SOL    HW222923   7.253   1.681   0.855
 4082SOL     OW22924   3.375   7.975   3.719
 4082SOL    HW122925   3.368   8.015   3.628
 4082SOL    HW222926   3.365   8.047   3.788
 4083SOL     OW22927   9.110   7.354   1.272
 4083SOL    HW122928   9.162   7.388   1.351
 4083SOL    HW222929   9.024   7.314   1.304
 4084SOL     OW22930   3.378   7.326   1.743
 4084SOL    HW122931   3.446   7.394   1.770
 4084SOL    HW222932   3.415   7.234   1.757
 4085SOL     OW22933   3.745   4.059   1.354
 4085SOL    HW122934   3.659   4.106   1.373
 4085SOL    HW222935   3.743   4.020   1.262
 4086SOL     OW22936   1.663   8.301   4.284
 4086SOL    HW122937   1.696   8.263   4.198
 4086SOL    HW222938   1.670   8.400   4.282
 4087SOL     OW22939   5.025   3.366   0.198
 4087SOL    HW122940   5.000   3.288   0.256
 4087SOL    HW222941   5.055   3.441   0.256
 4088SOL     OW22942   0.947   5.277   0.983
 4088SOL    HW122943   1.029   5.311   1.029
 4088SOL    HW222944   0.973   5.206   0.917
 4089SOL     OW22945   5.684   8.808   1.936
 4089SOL    HW122946   5.713   8.901   1.959
 4089SOL    HW222947   5.751   8.767   1.874
 4090SOL     OW22948   3.405   7.934   0.232
 4090SOL    HW122949   3.415   7.841   0.197
 4090SOL    HW222950   3.310   7.964   0.220
 4091SOL     OW22951   4.827   0.105   0.525
 4091SOL    HW122952   4.891   0.099   0.602
 4091SOL    HW222953   4.809   0.201   0.503
 4092SOL     OW22954   1.491   1.079   2.588
 4092SOL    HW122955   1.506   1.146   2.515
 4092SOL    HW222956   1.579   1.039   2.614
 4093SOL     OW22957   3.272   3.173   3.763
 4093SOL    HW122958   3.203   3.118   3.716
 4093SOL    HW222959   3.341   3.113   3.803
 4094SOL     OW22960   2.915   5.864   0.391
 4094SOL    HW122961   2.955   5.796   0.329
 4094SOL    HW222962   2.838   5.908   0.346
 4095SOL     OW22963   0.390   8.904   0.165
 4095SOL    HW122964   0.298   8.867   0.149
 4095SOL    HW222965   0.383   8.999   0.194
 4096SOL     OW22966   4.090   9.078   0.974
 4096SOL    HW122967   3.995   9.068   1.006
 4096SOL    HW222968   4.152   9.038   1.041
 4097SOL     OW22969   1.800   4.514   4.004
 4097SOL    HW122970   1.883   4.568   4.016
 4097SOL    HW222971   1.733   4.567   3.952
 4098SOL     OW22972   5.225   8.652   2.887
 4098SOL    HW122973   5.301   8.595   2.921
 4098SOL    HW222974   5.143   8.596   2.879
 4099SOL     OW22975   2.717   1.319   1.784
 4099SOL    HW122976   2.785   1.269   1.837
 4099SOL    HW222977   2.673   1.388   1.842
 4100SOL     OW22978   3.723   1.957   3.444
 4100SOL    HW122979   3.648   2.001   3.494
 4100SOL    HW222980   3.774   2.027   3.393
 4101SOL     OW22981   1.627   3.784   4.141
 4101SOL    HW122982   1.553   3.833   4.096
 4101SOL    HW222983   1.659   3.836   4.220
 4102SOL     OW22984   8.221   3.267   1.882
 4102SOL    HW122985   8.211   3.171   1.909
 4102SOL    HW222986   8.212   3.325   1.963
 4103SOL     OW22987   4.150   8.281   2.007
 4103SOL    HW122988   4.177   8.219   2.080
 4103SOL    HW222989   4.215   8.274   1.931
 4104SOL     OW22990   0.000   9.939   2.786
 4104SOL    HW122991   0.013   9.934   2.687
 4104SOL    HW222992   0.010   9.848   2.825
 4105SOL     OW22993   3.198   3.252   1.981
 4105SOL    HW122994   3.252   3.168   1.973
 4105SOL    HW222995   3.107   3.236   1.942
 4106SOL     OW22996   7.545   6.036   3.642
 4106SOL    HW122997   7.618   6.034   3.710
 4106SOL    HW222998   7.552   5.955   3.583
 4107SOL     OW22999   0.145   8.616   0.772
 4107SOL    HW123000   0.091   8.682   0.824
 4107SOL    HW223001   0.094   8.531   0.764
 4108SOL     OW23002   5.794   0.874   0.780
 4108SOL    HW123003   5.710   0.845   0.734
 4108SOL    HW223004   5.772   0.907   0.872
 4109SOL     OW23005   9.908   5.910   2.544
 4109SOL    HW123006   9.899   5.945   2.637
 4109SOL    HW223007   0.001   5.878   2.529
 4110SOL     OW23008   3.803   0.106   3.902
 4110SOL    HW123009   3.769   0.160   3.979
 4110SOL    HW223010   3.897   0.078   3.920
 4111SOL     OW23011   2.987   3.912   2.610
 4111SOL    HW123012   3.042   3.830   2.597
 4111SOL    HW223013   2.893   3.895   2.581
 4112SOL     OW23014   6.102   0.099   0.867
 4112SOL    HW123015   6.034   0.031   0.895
 4112SOL    HW223016   6.083   0.185   0.914
 4113SOL     OW23017   5.324   9.236   2.297
 4113SOL    HW123018   5.238   9.186   2.300
 4113SOL    HW223019   5.310   9.330   2.328
 4114SOL     OW23020   9.984   9.078   2.913
 4114SOL    HW123021   0.043   9.026   2.974
 4114SOL    HW223022   9.930   9.014   2.858
 4115SOL     OW23023   0.019   9.334   0.875
 4115SOL    HW123024   0.011   9.415   0.817
 4115SOL    HW223025   0.018   9.252   0.818
 4116SOL     OW23026   8.396   0.443   0.569
 4116SOL    HW123027   8.452   0.362   0.551
 4116SOL    HW223028   8.326   0.420   0.637
 4117SOL     OW23029   9.155   4.638   4.088
 4117SOL    HW123030   9.217   4.709   4.122
 4117SOL    HW223031   9.064   4.676   4.076
 4118SOL     OW23032   4.588   9.109   2.500
 4118SOL    HW123033   4.579   9.081   2.405
 4118SOL    HW223034   4.513   9.172   2.523
 4119SOL     OW23035   9.907   9.446   2.482
 4119SOL    HW123036   9.850   9.525   2.459
 4119SOL    HW223037   9.987   9.444   2.422
 4120SOL     OW23038   3.035   6.883   3.749
 4120SOL    HW123039   3.101   6.952   3.778
 4120SOL    HW223040   2.987   6.846   3.828
 4121SOL     OW23041   7.825   6.118   3.428
 4121SOL    HW123042   7.810   6.023   3.400
 4121SOL    HW223043   7.809   6.178   3.350
 4122SOL     OW23044   0.083   3.976   2.237
 4122SOL    HW123045   0.149   3.901   2.231
 4122SOL    HW223046   9.991   3.941   2.218
 4123SOL     OW23047   0.184   6.010   3.038
 4123SOL    HW123048   0.270   5.976   3.076
 4123SOL    HW223049   0.154   5.949   2.965
 4124SOL     OW23050   8.919   3.778   0.042
 4124SOL    HW123051   8.928   3.706   0.111
 4124SOL    HW223052   8.823   3.805   0.034
 4125SOL     OW23053   8.482   5.601   2.556
 4125SOL    HW123054   8.399   5.577   2.506
 4125SOL    HW223055   8.561   5.556   2.514
 4126SOL     OW23056   7.004   8.560   2.163
 4126SOL    HW123057   7.061   8.499   2.109
 4126SOL    HW223058   6.954   8.622   2.103
 4127SOL     OW23059   3.678   4.692   3.665
 4127SOL    HW123060   3.609   4.620   3.675
 4127SOL    HW223061   3.760   4.654   3.621
 4128SOL     OW23062   9.978   1.129   3.254
 4128SOL    HW123063   0.010   1.171   3.169
 4128SOL    HW223064   0.056   1.111   3.314
 4129SOL     OW23065   5.781   1.258   4.028
 4129SOL    HW123066   5.880   1.262   4.018
 4129SOL    HW223067   5.738   1.307   3.952
 4130SOL     OW23068   7.747   5.321   3.650
 4130SOL    HW123069   7.825   5.260   3.664
 4130SOL    HW223070   7.735   5.379   3.730
 4131SOL     OW23071   6.210   6.631   3.459
 4131SOL    HW123072   6.180   6.546   3.503
 4131SOL    HW223073   6.309   6.640   3.468
 4132SOL     OW23074   3.912   4.502   0.778
 4132SOL    HW123075   3.938   4.409   0.806
 4132SOL    HW223076   3.991   4.563   0.789
 4133SOL     OW23077   3.411   1.701   3.534
 4133SOL    HW123078   3.381   1.697   3.438
 4133SOL    HW223079   3.415   1.796   3.564
 4134SOL     OW23080   1.338   3.500   2.936
 4134SOL    HW123081   1.259   3.560   2.925
 4134SOL    HW223082   1.413   3.534   2.881
 4135SOL     OW23083   2.526   0.236   2.308
 4135SOL    HW123084   2.482   0.182   2.236
 4135SOL    HW223085   2.481   0.325   2.316
 4136SOL     OW23086   9.159   9.230   3.732
 4136SOL    HW123087   9.142   9.243   3.635
 4136SOL    HW223088   9.256   9.243   3.751
 4137SOL     OW23089   0.621   2.918   4.120
 4137SOL    HW123090   0.646   2.921   4.023
 4137SOL    HW223091   0.647   2.829   4.158
 4138SOL     OW23092   0.939   5.882   1.311
 4138SOL    HW123093   0.938   5.892   1.212
 4138SOL    HW223094   0.938   5.785   1.335
 4139SOL     OW23095   4.318   2.199   3.919
 4139SOL    HW123096   4.235   2.215   3.866
 4139SOL    HW223097   4.309   2.242   4.009
 4140SOL     OW23098   8.982   0.842   1.832
 4140SOL    HW123099   9.021   0.770   1.890
 4140SOL    HW223100   8.927   0.801   1.760
 4141SOL     OW23101   1.002   3.294   3.657
 4141SOL    HW123102   0.942   3.375   3.657
 4141SOL    HW223103   0.949   3.214   3.628
 4142SOL     OW23104   1.439   0.909   0.400
 4142SOL    HW123105   1.470   0.818   0.428
 4142SOL    HW223106   1.455   0.974   0.473
 4143SOL     OW23107   7.491   9.154   1.927
 4143SOL    HW123108   7.552   9.077   1.948
 4143SOL    HW223109   7.413   9.120   1.874
 4144SOL     OW23110   2.613   8.780   3.090
 4144SOL    HW123111   2.673   8.856   3.118
 4144SOL    HW223112   2.669   8.699   3.072
 4145SOL     OW23113   9.331   6.729   1.156
 4145SOL    HW123114   9.393   6.778   1.096
 4145SOL    HW223115   9.319   6.780   1.241
 4146SOL     OW23116   4.638   5.193   1.034
 4146SOL    HW123117   4.611   5.288   1.048
 4146SOL    HW223118   4.573   5.132   1.080
 4147SOL     OW23119   9.931   3.271   1.030
 4147SOL    HW123120   9.903   3.253   0.935
 4147SOL    HW223121   9.930   3.370   1.047
 4148SOL     OW23122   8.711   3.816   4.418
 4148SOL    HW123123   8.752   3.836   4.507
 4148SOL    HW223124   8.695   3.718   4.410
 4149SOL     OW23125   7.850   9.552   1.741
 4149SOL    HW123126   7.796   9.470   1.719
 4149SOL    HW223127   7.791   9.633   1.736
 4150SOL     OW23128   5.292   7.473   4.179
 4150SOL    HW123129   5.360   7.529   4.130
 4150SOL    HW223130   5.201   7.511   4.164
 4151SOL     OW23131   8.836   5.419   2.794
 4151SOL    HW123132   8.826   5.490   2.724
 4151SOL    HW223133   8.925   5.373   2.782
 4152SOL     OW23134   0.465   3.172   0.109
 4152SOL    HW123135   0.547   3.226   0.124
 4152SOL    HW223136   0.488   3.074   0.112
 4153SOL     OW23137   0.402   0.422   3.528
 4153SOL    HW123138   0.444   0.495   3.473
 4153SOL    HW223139   0.472   0.356   3.555
 4154SOL     OW23140   1.752   0.637   2.707
 4154SOL    HW123141   1.825   0.657   2.771
 4154SOL    HW223142   1.774   0.678   2.618
 4155SOL     OW23143   5.146   7.656   3.472
 4155SOL    HW123144   5.121   7.752   3.487
 4155SOL    HW223145   5.223   7.652   3.408
 4156SOL     OW23146   0.340   1.671   1.397
 4156SOL    HW123147   0.409   1.599   1.409
 4156SOL    HW223148   0.326   1.718   1.484
 4157SOL     OW23149   0.032   6.074   3.377
 4157SOL    HW123150   9.974   6.054   3.299
 4157SOL    HW223151   0.127   6.087   3.346
 4158SOL     OW23152   9.918   6.735   0.171
 4158SOL    HW123153   9.996   6.793   0.195
 4158SOL    HW223154   9.867   6.712   0.254
 4159SOL     OW23155   1.898   3.541   0.661
 4159SOL    HW123156   1.993   3.571   0.669
 4159SOL    HW223157   1.893   3.460   0.602
 4160SOL     OW23158   2.220   1.264   1.373
 4160SOL    HW123159   2.220   1.176   1.419
 4160SOL    HW223160   2.131   1.279   1.329
 4161SOL     OW23161   0.233   8.359   0.137
 4161SOL    HW123162   0.166   8.426   0.103
 4161SOL    HW223163   0.276   8.394   0.221
 4162SOL     OW23164   8.163   7.555   1.543
 4162SOL    HW123165   8.098   7.601   1.482
 4162SOL    HW223166   8.232   7.508   1.488
 4163SOL     OW23167   8.164   2.088   1.036
 4163SOL    HW123168   8.203   2.170   0.993
 4163SOL    HW223169   8.067   2.103   1.055
 4164SOL     OW23170   7.553   0.793   3.478
 4164SOL    HW123171   7.599   0.851   3.411
 4164SOL    HW223172   7.570   0.697   3.457
 4165SOL     OW23173   1.608   9.377   0.698
 4165SOL    HW123174   1.511   9.403   0.694
 4165SOL    HW223175   1.623   9.318   0.777
 4166SOL     OW23176   9.318   3.662   1.250
 4166SOL    HW123177   9.382   3.640   1.177
 4166SOL    HW223178   9.232   3.613   1.237
 4167SOL     OW23179   9.839   0.308   2.456
 4167SOL    HW123180   9.766   0.334   2.520
 4167SOL    HW223181   9.926   0.346   2.487
 4168SOL     OW23182   1.976   5.210   2.063
 4168SOL    HW123183   1.919   5.223   1.982
 4168SOL    HW223184   2.033   5.292   2.077
 4169SOL     OW23185   8.195   8.376   2.292
 4169SOL    HW123186   8.294   8.382   2.304
 4169SOL    HW223187   8.150   8.420   2.370
 4170SOL     OW23188   1.704   2.317   0.591
 4170SOL    HW123189   1.616   2.360   0.571
 4170SOL    HW223190   1.688   2.231   0.639
 4171SOL     OW23191   1.894   4.645   3.573
 4171SOL    HW123192   1.816   4.588   3.600
 4171SOL    HW223193   1.906   4.717   3.641
 4172SOL     OW23194   7.917   0.672   4.000
 4172SOL    HW123195   7.861   0.648   4.079
 4172SOL    HW223196   7.892   0.613   3.923
 4173SOL     OW23197   0.802   5.567   0.459
 4173SOL    HW123198   0.790   5.633   0.384
 4173SOL    HW223199   0.758   5.481   0.434
 4174SOL     OW23200   2.352   5.441   4.001
 4174SOL    HW123201   2.426   5.507   3.986
 4174SOL    HW223202   2.264   5.490   4.006
 4175SOL     OW23203   7.125   0.084   3.173
 4175SOL    HW123204   7.130   0.113   3.077
 4175SOL    HW223205   7.066   0.147   3.223
 4176SOL     OW23206   5.020   8.415   2.591
 4176SOL    HW123207   4.974   8.456   2.512
 4176SOL    HW223208   4.985   8.322   2.605
 4177SOL     OW23209   8.038   1.167   3.469
 4177SOL    HW123210   7.991   1.082   3.445
 4177SOL    HW223211   8.136   1.156   3.453
 4178SOL     OW23212   9.537   3.469   3.868
 4178SOL    HW123213   9.478   3.440   3.943
 4178SOL    HW223214   9.569   3.563   3.885
 4179SOL     OW23215   4.197   7.149   3.783
 4179SOL    HW123216   4.267   7.216   3.757
 4179SOL    HW223217   4.111   7.197   3.802
 4180SOL     OW23218   4.215   2.382   1.719
 4180SOL    HW123219   4.234   2.462   1.661
 4180SOL    HW223220   4.283   2.378   1.792
 4181SOL     OW23221   8.860   1.363   3.695
 4181SOL    HW123222   8.833   1.446   3.647
 4181SOL    HW223223   8.778   1.312   3.722
 4182SOL     OW23224   6.383   9.649   2.153
 4182SOL    HW123225   6.286   9.656   2.127
 4182SOL    HW223226   6.397   9.569   2.210
 4183SOL     OW23227   4.745   0.608   2.210
 4183SOL    HW123228   4.646   0.608   2.217
 4183SOL    HW223229   4.785   0.592   2.300
 4184SOL     OW23230   8.196   1.022   0.123
 4184SOL    HW123231   8.115   1.001   0.068
 4184SOL    HW223232   8.169   1.071   0.205
 4185SOL     OW23233   2.543   5.243   0.500
 4185SOL    HW123234   2.578   5.269   0.410
 4185SOL    HW223235   2.480   5.166   0.491
 4186SOL     OW23236   2.427   5.255   4.191
 4186SOL    HW123237   2.439   5.291   4.284
 4186SOL    HW223238   2.392   5.328   4.132
 4187SOL     OW23239   7.504   9.509   0.506
 4187SOL    HW123240   7.599   9.537   0.523
 4187SOL    HW223241   7.460   9.487   0.592
 4188SOL     OW23242   8.780   0.642   3.914
 4188SOL    HW123243   8.856   0.577   3.906
 4188SOL    HW223244   8.713   0.625   3.843
 4189SOL     OW23245   9.280   9.994   3.392
 4189SOL    HW123246   9.331   9.960   3.472
 4189SOL    HW223247   9.289   9.928   3.317
 4190SOL     OW23248   6.921   1.149   1.963
 4190SOL    HW123249   6.958   1.164   1.871
 4190SOL    HW223250   6.959   1.065   2.001
 4191SOL     OW23251   7.875   2.313   3.081
 4191SOL    HW123252   7.938   2.358   3.018
 4191SOL    HW223253   7.908   2.222   3.103
 4192SOL     OW23254   0.659   7.424   2.497
 4192SOL    HW123255   0.748   7.425   2.451
 4192SOL    HW223256   0.671   7.395   2.592
 4193SOL     OW23257   4.819   0.205   0.941
 4193SOL    HW123258   4.724   0.222   0.919
 4193SOL    HW223259   4.862   0.288   0.977
 4194SOL     OW23260   0.258   9.499   4.145
 4194SOL    HW123261   0.321   9.431   4.183
 4194SOL    HW223262   0.305   9.587   4.136
 4195SOL     OW23263   2.138   2.455   1.751
 4195SOL    HW123264   2.230   2.494   1.752
 4195SOL    HW223265   2.075   2.518   1.797
 4196SOL     OW23266   0.906   7.299   0.976
 4196SOL    HW123267   0.806   7.308   0.970
 4196SOL    HW223268   0.946   7.386   1.004
 4197SOL     OW23269   3.822   3.122   2.593
 4197SOL    HW123270   3.767   3.038   2.596
 4197SOL    HW223271   3.902   3.112   2.652
 4198SOL     OW23272   0.132   4.206   3.762
 4198SOL    HW123273   0.126   4.209   3.662
 4198SOL    HW223274   0.122   4.298   3.799
 4199SOL     OW23275   3.187   9.828   3.561
 4199SOL    HW123276   3.103   9.860   3.603
 4199SOL    HW223277   3.210   9.737   3.596
 4200SOL     OW23278   1.435   4.833   1.330
 4200SOL    HW123279   1.410   4.764   1.262
 4200SOL    HW223280   1.354   4.861   1.381
 4201SOL     OW23281   0.160   4.848   0.074
 4201SOL    HW123282   0.139   4.913   0.002
 4201SOL    HW223283   0.258   4.852   0.095
 4202SOL     OW23284   0.544   1.533   3.570
 4202SOL    HW123285   0.451   1.495   3.571
 4202SOL    HW223286   0.600   1.484   3.504
 4203SOL     OW23287   9.690   0.698   0.549
 4203SOL    HW123288   9.744   0.737   0.623
 4203SOL    HW223289   9.598   0.679   0.582
 4204SOL     OW23290   8.868   5.024   3.189
 4204SOL    HW123291   8.807   5.031   3.268
 4204SOL    HW223292   8.945   5.086   3.201
 4205SOL     OW23293   3.692   8.911   3.287
 4205SOL    HW123294   3.652   9.003   3.277
 4205SOL    HW223295   3.631   8.844   3.244
 4206SOL     OW23296   3.461   6.903   3.593
 4206SOL    HW123297   3.471   6.937   3.499
 4206SOL    HW223298   3.551   6.894   3.635
 4207SOL     OW23299   3.511   4.203   1.394
 4207SOL    HW123300   3.559   4.290   1.402
 4207SOL    HW223301   3.458   4.187   1.478
 4208SOL     OW23302   2.487   5.558   5.626
 4208SOL    HW123303   2.447   5.499   0.063
 4208SOL    HW223304   2.502   5.504   5.543
 4209SOL     OW23305   6.716   8.275   1.598
 4209SOL    HW123306   6.626   8.315   1.584
 4209SOL    HW223307   6.708   8.191   1.651
 4210SOL     OW23308   5.012   0.729   0.368
 4210SOL    HW123309   4.935   0.790   0.348
 4210SOL    HW223310   5.087   0.782   0.407
 4211SOL     OW23311   8.195   0.008   0.347
 4211SOL    HW123312   8.109   9.997   0.398
 4211SOL    HW223313   8.272   0.004   0.410
 4212SOL     OW23314   3.450   1.441   1.679
 4212SOL    HW123315   3.487   1.444   1.587
 4212SOL    HW223316   3.423   1.347   1.701
 4213SOL     OW23317   9.920   2.171   1.216
 4213SOL    HW123318   9.967   2.189   1.129
 4213SOL    HW223319   9.821   2.165   1.200
 4214SOL     OW23320   1.286   9.317   2.090
 4214SOL    HW123321   1.339   9.304   2.006
 4214SOL    HW223322   1.199   9.270   2.083
 4215SOL     OW23323   3.856   1.776   1.482
 4215SOL    HW123324   3.916   1.853   1.504
 4215SOL    HW223325   3.846   1.769   1.383
 4216SOL     OW23326   5.260   5.611   1.220
 4216SOL    HW123327   5.268   5.532   1.159
 4216SOL    HW223328   5.222   5.582   1.308
 4217SOL     OW23329   8.581   3.991   0.985
 4217SOL    HW123330   8.659   4.016   1.043
 4217SOL    HW223331   8.538   4.073   0.949
 4218SOL     OW23332   3.454   2.124   2.494
 4218SOL    HW123333   3.480   2.137   2.590
 4218SOL    HW223334   3.411   2.208   2.460
 4219SOL     OW23335   8.543   1.638   4.190
 4219SOL    HW123336   8.460   1.667   4.143
 4219SOL    HW223337   8.623   1.674   4.141
 4220SOL     OW23338   5.286   9.806   3.357
 4220SOL    HW123339   5.205   9.847   3.398
 4220SOL    HW223340   5.281   9.707   3.366
 4221SOL     OW23341   8.548   8.863   3.246
 4221SOL    HW123342   8.517   8.823   3.159
 4221SOL    HW223343   8.594   8.793   3.300
 4222SOL     OW23344   9.803   0.041   2.522
 4222SOL    HW123345   9.890   9.992   2.515
 4222SOL    HW223346   9.817   0.137   2.496
 4223SOL     OW23347   2.057   4.227   3.530
 4223SOL    HW123348   2.106   4.169   3.595
 4223SOL    HW223349   2.006   4.168   3.466
 4224SOL     OW23350   9.338   0.554   1.750
 4224SOL    HW123351   9.414   0.489   1.751
 4224SOL    HW223352   9.292   0.552   1.839
 4225SOL     OW23353   1.220   5.179   4.077
 4225SOL    HW123354   1.320   5.180   4.072
 4225SOL    HW223355   1.186   5.273   4.077
 4226SOL     OW23356   1.163   1.933   1.269
 4226SOL    HW123357   1.074   1.899   1.238
 4226SOL    HW223358   1.161   1.945   1.368
 4227SOL     OW23359   2.200   1.078   2.316
 4227SOL    HW123360   2.129   1.015   2.348
 4227SOL    HW223361   2.277   1.076   2.379
 4228SOL     OW23362   4.377   1.572   0.541
 4228SOL    HW123363   4.471   1.551   0.567
 4228SOL    HW223364   4.315   1.554   0.617
 4229SOL     OW23365   4.156   9.386   0.445
 4229SOL    HW123366   4.205   9.424   0.367
 4229SOL    HW223367   4.135   9.459   0.511
 4230SOL     OW23368   9.637   5.374   0.190
 4230SOL    HW123369   9.586   5.297   0.152
 4230SOL    HW223370   9.725   5.383   0.143
 4231SOL     OW23371   6.124   6.907   3.151
 4231SOL    HW123372   6.133   6.921   3.250
 4231SOL    HW223373   6.043   6.954   3.118
 4232SOL     OW23374   4.313   0.567   0.505
 4232SOL    HW123375   4.398   0.528   0.541
 4232SOL    HW223376   4.256   0.493   0.469
 4233SOL     OW23377   7.484   8.524   3.470
 4233SOL    HW123378   7.534   8.585   3.408
 4233SOL    HW223379   7.534   8.514   3.556
 4234SOL     OW23380   7.247   1.894   3.009
 4234SOL    HW123381   7.193   1.964   2.962
 4234SOL    HW223382   7.311   1.852   2.945
 4235SOL     OW23383   5.920   9.790   2.892
 4235SOL    HW123384   5.985   9.828   2.959
 4235SOL    HW223385   5.959   9.798   2.800
 4236SOL     OW23386   4.151   1.913   3.208
 4236SOL    HW123387   4.131   1.890   3.112
 4236SOL    HW223388   4.168   1.829   3.259
 4237SOL     OW23389   8.776   5.376   3.344
 4237SOL    HW123390   8.796   5.473   3.350
 4237SOL    HW223391   8.695   5.355   3.399
 4238SOL     OW23392   7.733   7.536   3.948
 4238SOL    HW123393   7.732   7.630   3.915
 4238SOL    HW223394   7.758   7.536   4.045
 4239SOL     OW23395   8.223   9.539   4.126
 4239SOL    HW123396   8.240   9.473   4.052
 4239SOL    HW223397   8.178   9.493   4.202
 4240SOL     OW23398   2.981   1.980   4.333
 4240SOL    HW123399   2.912   1.977   4.405
 4240SOL    HW223400   3.021   1.889   4.321
 4241SOL     OW23401   9.140   6.048   3.335
 4241SOL    HW123402   9.168   5.984   3.407
 4241SOL    HW223403   9.170   6.140   3.358
 4242SOL     OW23404   7.951   7.656   1.728
 4242SOL    HW123405   7.981   7.747   1.755
 4242SOL    HW223406   8.025   7.610   1.678
 4243SOL     OW23407   1.763   6.894   2.676
 4243SOL    HW123408   1.716   6.832   2.614
 4243SOL    HW223409   1.725   6.883   2.768
 4244SOL     OW23410   1.436   6.480   2.063
 4244SOL    HW123411   1.478   6.458   1.975
 4244SOL    HW223412   1.400   6.573   2.061
 4245SOL     OW23413   1.808   8.195   0.494
 4245SOL    HW123414   1.881   8.157   0.551
 4245SOL    HW223415   1.744   8.245   0.552
 4246SOL     OW23416   9.433   1.236   4.014
 4246SOL    HW123417   9.450   1.298   3.938
 4246SOL    HW223418   9.494   1.157   4.007
 4247SOL     OW23419   4.719   7.347   1.455
 4247SOL    HW123420   4.648   7.346   1.385
 4247SOL    HW223421   4.808   7.327   1.414
 4248SOL     OW23422   8.907   1.065   1.125
 4248SOL    HW123423   8.828   1.004   1.123
 4248SOL    HW223424   8.938   1.077   1.219
 4249SOL     OW23425   3.376   4.280   2.921
 4249SOL    HW123426   3.451   4.274   2.855
 4249SOL    HW223427   3.299   4.224   2.890
 4250SOL     OW23428   1.765   7.712   1.669
 4250SOL    HW123429   1.789   7.802   1.705
 4250SOL    HW223430   1.669   7.712   1.641
 4251SOL     OW23431   0.111   3.004   2.462
 4251SOL    HW123432   0.204   2.972   2.484
 4251SOL    HW223433   0.049   2.979   2.537
 4252SOL     OW23434   7.970   2.183   0.100
 4252SOL    HW123435   7.998   2.271   0.063
 4252SOL    HW223436   7.982   2.183   0.199
 4253SOL     OW23437   4.929   6.361   2.043
 4253SOL    HW123438   4.916   6.316   2.132
 4253SOL    HW223439   4.969   6.452   2.058
 4254SOL     OW23440   0.856   4.501   0.561
 4254SOL    HW123441   0.795   4.515   0.639
 4254SOL    HW223442   0.947   4.475   0.595
 4255SOL     OW23443   6.619   9.116   3.160
 4255SOL    HW123444   6.644   9.025   3.128
 4255SOL    HW223445   6.646   9.184   3.091
 4256SOL     OW23446   8.877   6.130   4.245
 4256SOL    HW123447   8.927   6.074   4.179
 4256SOL    HW223448   8.779   6.127   4.223
 4257SOL     OW23449   5.045   1.520   3.975
 4257SOL    HW123450   4.950   1.542   4.000
 4257SOL    HW223451   5.107   1.575   4.030
 4258SOL     OW23452   7.920   9.788   1.332
 4258SOL    HW123453   7.923   9.820   1.427
 4258SOL    HW223454   8.014   9.774   1.300
 4259SOL     OW23455   2.933   3.197   1.903
 4259SOL    HW123456   2.851   3.255   1.902
 4259SOL    HW223457   2.926   3.131   1.978
 4260SOL     OW23458   8.703   4.426   0.613
 4260SOL    HW123459   8.760   4.464   0.686
 4260SOL    HW223460   8.625   4.487   0.597
 4261SOL     OW23461   0.721   7.024   0.245
 4261SOL    HW123462   0.717   7.012   0.344
 4261SOL    HW223463   0.628   7.027   0.208
 4262SOL     OW23464   4.195   1.345   0.179
 4262SOL    HW123465   4.204   1.344   0.079
 4262SOL    HW223466   4.236   1.429   0.215
 4263SOL     OW23467   9.862   6.052   0.097
 4263SOL    HW123468   9.797   5.977   0.084
 4263SOL    HW223469   9.930   6.051   0.023
 4264SOL     OW23470   9.266   8.839   2.017
 4264SOL    HW123471   9.356   8.801   2.038
 4264SOL    HW223472   9.259   8.857   1.919
 4265SOL     OW23473   0.696   6.778   3.416
 4265SOL    HW123474   0.677   6.823   3.329
 4265SOL    HW223475   0.614   6.730   3.447
 4266SOL     OW23476   3.653   9.477   1.653
 4266SOL    HW123477   3.674   9.526   1.738
 4266SOL    HW223478   3.659   9.379   1.670
 4267SOL     OW23479   9.370   9.425   1.084
 4267SOL    HW123480   9.328   9.391   1.168
 4267SOL    HW223481   9.302   9.477   1.032
 4268SOL     OW23482   8.312   9.870   3.704
 4268SOL    HW123483   8.345   9.869   3.610
 4268SOL    HW223484   8.258   9.953   3.720
 4269SOL     OW23485   5.771   7.212   2.610
 4269SOL    HW123486   5.735   7.233   2.519
 4269SOL    HW223487   5.699   7.171   2.666
 4270SOL     OW23488   1.400   0.151   3.302
 4270SOL    HW123489   1.490   0.195   3.307
 4270SOL    HW223490   1.377   0.133   3.207
 4271SOL     OW23491   3.308   9.738   1.057
 4271SOL    HW123492   3.208   9.744   1.065
 4271SOL    HW223493   3.341   9.816   1.003
 4272SOL     OW23494   3.779   9.314   2.194
 4272SOL    HW123495   3.715   9.325   2.118
 4272SOL    HW223496   3.855   9.256   2.166
 4273SOL     OW23497   8.906   8.451   1.818
 4273SOL    HW123498   8.903   8.395   1.735
 4273SOL    HW223499   8.888   8.546   1.794
 4274SOL     OW23500   1.165   0.317   2.651
 4274SOL    HW123501   1.080   0.370   2.649
 4274SOL    HW223502   1.237   0.369   2.606
 4275SOL     OW23503   4.880   0.955   1.560
 4275SOL    HW123504   4.929   0.876   1.597
 4275SOL    HW223505   4.782   0.939   1.568
 4276SOL     OW23506   6.684   8.025   1.714
 4276SOL    HW123507   6.768   7.971   1.721
 4276SOL    HW223508   6.630   7.994   1.636
 4277SOL     OW23509   9.904   0.931   3.880
 4277SOL    HW123510   9.973   1.000   3.901
 4277SOL    HW223511   9.883   0.878   3.962
 4278SOL     OW23512   0.703   5.945   3.828
 4278SOL    HW123513   0.721   5.854   3.865
 4278SOL    HW223514   0.714   6.013   3.900
 4279SOL     OW23515   9.315   5.614   3.871
 4279SOL    HW123516   9.355   5.700   3.903
 4279SOL    HW223517   9.216   5.618   3.881
 4280SOL     OW23518   1.909   4.866   3.738
 4280SOL    HW123519   1.924   4.879   3.836
 4280SOL    HW223520   1.972   4.924   3.686
 4281SOL     OW23521   1.456   8.937   3.778
 4281SOL    HW123522   1.365   8.981   3.776
 4281SOL    HW223523   1.517   8.991   3.836
 4282SOL     OW23524   0.597   8.215   1.902
 4282SOL    HW123525   0.527   8.236   1.970
 4282SOL    HW223526   0.683   8.191   1.948
 4283SOL     OW23527   0.756   0.614   1.595
 4283SOL    HW123528   0.781   0.705   1.630
 4283SOL    HW223529   0.750   0.617   1.495
 4284SOL     OW23530   1.799   1.293   0.749
 4284SOL    HW123531   1.721   1.355   0.755
 4284SOL    HW223532   1.776   1.206   0.794
 4285SOL     OW23533   7.477   6.603   3.407
 4285SOL    HW123534   7.416   6.525   3.424
 4285SOL    HW223535   7.451   6.678   3.467
 4286SOL     OW23536   7.820   4.719   0.485
 4286SOL    HW123537   7.905   4.689   0.441
 4286SOL    HW223538   7.813   4.818   0.479
 4287SOL     OW23539   9.473   4.591   3.219
 4287SOL    HW123540   9.533   4.670   3.206
 4287SOL    HW223541   9.515   4.511   3.177
 4288SOL     OW23542   8.522   7.435   1.915
 4288SOL    HW123543   8.449   7.491   1.954
 4288SOL    HW223544   8.611   7.468   1.948
 4289SOL     OW23545   1.759   2.083   1.009
 4289SOL    HW123546   1.687   2.020   1.039
 4289SOL    HW223547   1.831   2.087   1.079
 4290SOL     OW23548   2.231   0.745   2.546
 4290SOL    HW123549   2.279   0.721   2.462
 4290SOL    HW223550   2.218   0.663   2.602
 4291SOL     OW23551   3.143   8.323   1.768
 4291SOL    HW123552   3.093   8.361   1.846
 4291SOL    HW223553   3.080   8.308   1.692
 4292SOL     OW23554   3.250   0.647   3.912
 4292SOL    HW123555   3.226   0.636   4.009
 4292SOL    HW223556   3.343   0.683   3.905
 4293SOL     OW23557   3.319   6.776   2.278
 4293SOL    HW123558   3.243   6.791   2.340
 4293SOL    HW223559   3.306   6.689   2.230
 4294SOL     OW23560   0.700   5.310   0.412
 4294SOL    HW123561   0.792   5.270   0.421
 4294SOL    HW223562   0.634   5.237   0.394
 4295SOL     OW23563   8.876   0.632   0.292
 4295SOL    HW123564   8.947   0.680   0.344
 4295SOL    HW223565   8.919   0.575   0.222
 4296SOL     OW23566   1.227   2.664   0.124
 4296SOL    HW123567   1.286   2.628   0.053
 4296SOL    HW223568   1.272   2.654   0.213
 4297SOL     OW23569   2.542   0.022   3.123
 4297SOL    HW123570   2.610   0.091   3.150
 4297SOL    HW223571   2.501   9.981   3.204
 4298SOL     OW23572   3.242   6.043   4.010
 4298SOL    HW123573   3.153   6.057   4.054
 4298SOL    HW223574   3.310   6.105   4.051
 4299SOL     OW23575   8.449   4.063   0.671
 4299SOL    HW123576   8.407   4.106   0.751
 4299SOL    HW223577   8.548   4.079   0.673
 4300SOL     OW23578   7.752   0.885   2.261
 4300SOL    HW123579   7.739   0.802   2.315
 4300SOL    HW223580   7.796   0.862   2.174
 4301SOL     OW23581   9.965   3.904   1.787
 4301SOL    HW123582   9.968   4.001   1.812
 4301SOL    HW223583   9.972   3.896   1.687
 4302SOL     OW23584   9.128   2.265   3.560
 4302SOL    HW123585   9.200   2.325   3.525
 4302SOL    HW223586   9.058   2.252   3.490
 4303SOL     OW23587   7.807   7.038   2.320
 4303SOL    HW123588   7.774   7.077   2.406
 4303SOL    HW223589   7.825   7.112   2.255
 4304SOL     OW23590   6.445   8.966   2.400
 4304SOL    HW123591   6.400   8.877   2.415
 4304SOL    HW223592   6.430   8.995   2.306
 4305SOL     OW23593   9.802   8.737   2.351
 4305SOL    HW123594   9.705   8.721   2.337
 4305SOL    HW223595   9.855   8.670   2.300
 4306SOL     OW23596   3.364   1.534   3.076
 4306SOL    HW123597   3.331   1.575   3.161
 4306SOL    HW223598   3.382   1.606   3.009
 4307SOL     OW23599   0.902   8.275   3.285
 4307SOL    HW123600   0.813   8.256   3.243
 4307SOL    HW223601   0.898   8.252   3.382
 4308SOL     OW23602   4.489   8.536   4.297
 4308SOL    HW123603   4.400   8.492   4.308
 4308SOL    HW223604   4.557   8.467   4.273
 4309SOL     OW23605   9.240   1.470   1.644
 4309SOL    HW123606   9.185   1.445   1.564
 4309SOL    HW223607   9.222   1.565   1.669
 4310SOL     OW23608   0.208   1.106   4.111
 4310SOL    HW123609   0.185   1.106   4.014
 4310SOL    HW223610   0.128   1.079   4.165
 4311SOL     OW23611   3.108   8.686   1.444
 4311SOL    HW123612   3.032   8.621   1.452
 4311SOL    HW223613   3.080   8.774   1.481
 4312SOL     OW23614   2.998   3.050   1.071
 4312SOL    HW123615   2.925   3.117   1.083
 4312SOL    HW223616   3.079   3.095   1.033
 4313SOL     OW23617   0.973   4.207   1.400
 4313SOL    HW123618   0.885   4.200   1.354
 4313SOL    HW223619   0.965   4.170   1.493
 4314SOL     OW23620   3.248   8.080   2.122
 4314SOL    HW123621   3.315   8.036   2.182
 4314SOL    HW223622   3.245   8.178   2.141
 4315SOL     OW23623   7.967   0.943   0.461
 4315SOL    HW123624   8.001   0.859   0.502
 4315SOL    HW223625   7.909   0.921   0.383
 4316SOL     OW23626   1.373   0.998   0.965
 4316SOL    HW123627   1.323   1.050   0.897
 4316SOL    HW223628   1.405   0.912   0.925
 4317SOL     OW23629   2.889   2.670   2.285
 4317SOL    HW123630   2.948   2.750   2.297
 4317SOL    HW223631   2.811   2.694   2.228
 4318SOL     OW23632   0.067   6.654   1.192
 4318SOL    HW123633   0.124   6.581   1.156
 4318SOL    HW223634   0.100   6.682   1.282
 4319SOL     OW23635   1.575   4.196   0.371
 4319SOL    HW123636   1.529   4.113   0.402
 4319SOL    HW223637   1.549   4.272   0.430
 4320SOL     OW23638   5.297   9.239   3.373
 4320SOL    HW123639   5.305   9.162   3.310
 4320SOL    HW223640   5.236   9.215   3.449
 4321SOL     OW23641   3.589   6.756   4.208
 4321SOL    HW123642   3.491   6.742   4.202
 4321SOL    HW223643   3.630   6.747   4.117
 4322SOL     OW23644   0.587   2.641   2.877
 4322SOL    HW123645   0.661   2.698   2.844
 4322SOL    HW223646   0.501   2.692   2.871
 4323SOL     OW23647   3.608   7.998   3.078
 4323SOL    HW123648   3.511   7.973   3.074
 4323SOL    HW223649   3.637   8.032   2.989
 4324SOL     OW23650   3.117   4.076   2.232
 4324SOL    HW123651   3.180   4.072   2.154
 4324SOL    HW223652   3.068   3.989   2.240
 4325SOL     OW23653   7.794   1.051   0.633
 4325SOL    HW123654   7.723   0.983   0.652
 4325SOL    HW223655   7.861   1.012   0.569
 4326SOL     OW23656   4.400   1.290   1.095
 4326SOL    HW123657   4.404   1.295   0.996
 4326SOL    HW223658   4.307   1.268   1.124
 4327SOL     OW23659   6.599   0.852   1.831
 4327SOL    HW123660   6.615   0.921   1.902
 4327SOL    HW223661   6.686   0.814   1.800
 4328SOL     OW23662   8.160   9.830   0.140
 4328SOL    HW123663   8.253   9.798   0.124
 4328SOL    HW223664   8.160   9.894   0.217
 4329SOL     OW23665   1.813   9.043   2.867
 4329SOL    HW123666   1.838   9.132   2.828
 4329SOL    HW223667   1.716   9.043   2.891
 4330SOL     OW23668   3.820   5.328   2.566
 4330SOL    HW123669   3.737   5.346   2.620
 4330SOL    HW223670   3.812   5.239   2.522
 4331SOL     OW23671   3.499   0.795   3.417
 4331SOL    HW123672   3.410   0.792   3.372
 4331SOL    HW223673   3.536   0.703   3.426
 4332SOL     OW23674   8.549   4.059   0.166
 4332SOL    HW123675   8.618   4.121   0.129
 4332SOL    HW223676   8.516   4.094   0.254
 4333SOL     OW23677   2.979   9.674   2.645
 4333SOL    HW123678   2.912   9.603   2.668
 4333SOL    HW223679   2.961   9.709   2.553
 4334SOL     OW23680   2.894   9.151   0.209
 4334SOL    HW123681   2.968   9.096   0.170
 4334SOL    HW223682   2.818   9.155   0.145
 4335SOL     OW23683   9.333   6.718   0.737
 4335SOL    HW123684   9.315   6.624   0.710
 4335SOL    HW223685   9.432   6.737   0.732
 4336SOL     OW23686   4.970   9.397   4.326
 4336SOL    HW123687   4.905   9.459   4.369
 4336SOL    HW223688   4.984   9.424   4.230
 4337SOL     OW23689   4.977   7.500   3.328
 4337SOL    HW123690   4.883   7.510   3.362
 4337SOL    HW223691   5.039   7.555   3.384
 4338SOL     OW23692   5.659   8.467   2.365
 4338SOL    HW123693   5.584   8.404   2.348
 4338SOL    HW223694   5.669   8.529   2.287
 4339SOL     OW23695   5.578   0.465   4.284
 4339SOL    HW123696   5.530   0.388   4.327
 4339SOL    HW223697   5.636   0.431   4.211
 4340SOL     OW23698   3.668   0.261   1.055
 4340SOL    HW123699   3.692   0.256   1.152
 4340SOL    HW223700   3.571   0.237   1.043
 4341SOL     OW23701   0.613   2.464   1.042
 4341SOL    HW123702   0.560   2.389   1.003
 4341SOL    HW223703   0.662   2.512   0.969
 4342SOL     OW23704   8.952   1.024   2.296
 4342SOL    HW123705   8.873   0.970   2.267
 4342SOL    HW223706   8.951   1.034   2.395
 4343SOL     OW23707   2.511   2.375   1.027
 4343SOL    HW123708   2.593   2.321   1.010
 4343SOL    HW223709   2.462   2.389   0.940
 4344SOL     OW23710   0.389   8.747   2.644
 4344SOL    HW123711   0.374   8.818   2.713
 4344SOL    HW223712   0.429   8.789   2.562
 4345SOL     OW23713   1.120   0.418   3.950
 4345SOL    HW123714   1.200   0.366   3.982
 4345SOL    HW223715   1.149   0.508   3.918
 4346SOL     OW23716   7.855   6.549   2.863
 4346SOL    HW123717   7.764   6.552   2.822
 4346SOL    HW223718   7.922   6.584   2.797
 4347SOL     OW23719   2.108   3.786   0.460
 4347SOL    HW123720   2.077   3.767   0.367
 4347SOL    HW223721   2.161   3.871   0.461
 4348SOL     OW23722   5.921   8.691   2.569
 4348SOL    HW123723   5.956   8.747   2.494
 4348SOL    HW223724   5.822   8.706   2.578
 4349SOL     OW23725   8.998   6.002   3.640
 4349SOL    HW123726   9.076   5.954   3.600
 4349SOL    HW223727   8.934   6.028   3.567
 4350SOL     OW23728   8.113   7.021   1.531
 4350SOL    HW123729   8.176   6.972   1.591
 4350SOL    HW223730   8.106   6.973   1.443
 4351SOL     OW23731   3.632   6.191   2.348
 4351SOL    HW123732   3.724   6.206   2.382
 4351SOL    HW223733   3.635   6.130   2.269
 4352SOL     OW23734   3.266   1.099   0.769
 4352SOL    HW123735   3.325   1.179   0.777
 4352SOL    HW223736   3.172   1.128   0.754
 4353SOL     OW23737   7.066   9.610   3.576
 4353SOL    HW123738   7.122   9.585   3.497
 4353SOL    HW223739   7.085   9.705   3.601
 4354SOL     OW23740   0.565   3.405   2.559
 4354SOL    HW123741   0.585   3.466   2.635
 4354SOL    HW223742   0.639   3.339   2.549
 4355SOL     OW23743   9.475   0.839   2.204
 4355SOL    HW123744   9.392   0.849   2.258
 4355SOL    HW223745   9.495   0.742   2.190
 4356SOL     OW23746   9.914   4.550   0.067
 4356SOL    HW123747   9.986   4.542   5.632
 4356SOL    HW223748   9.874   4.642   0.064
 4357SOL     OW23749   1.536   9.573   0.414
 4357SOL    HW123750   1.510   9.576   0.318
 4357SOL    HW223751   1.603   9.500   0.428
 4358SOL     OW23752   2.670   2.540   4.040
 4358SOL    HW123753   2.768   2.556   4.050
 4358SOL    HW223754   2.638   2.485   4.117
 4359SOL     OW23755   9.065   4.535   0.206
 4359SOL    HW123756   9.147   4.551   0.261
 4359SOL    HW223757   9.064   4.440   0.174
 4360SOL     OW23758   3.210   0.006   4.192
 4360SOL    HW123759   3.198   0.105   4.184
 4360SOL    HW223760   3.307   9.983   4.181
 4361SOL     OW23761   4.688   8.411   3.613
 4361SOL    HW123762   4.626   8.356   3.669
 4361SOL    HW223763   4.707   8.364   3.527
 4362SOL     OW23764   9.643   5.532   1.417
 4362SOL    HW123765   9.699   5.469   1.471
 4362SOL    HW223766   9.608   5.485   1.337
 4363SOL     OW23767   6.441   0.981   3.609
 4363SOL    HW123768   6.417   0.946   3.519
 4363SOL    HW223769   6.414   1.077   3.616
 4364SOL     OW23770   2.794   2.214   4.324
 4364SOL    HW123771   2.889   2.209   4.295
 4364SOL    HW223772   2.755   2.302   4.298
 4365SOL     OW23773   8.015   6.313   3.038
 4365SOL    HW123774   7.991   6.273   2.950
 4365SOL    HW223775   7.933   6.322   3.095
 4366SOL     OW23776   2.906   4.515   0.741
 4366SOL    HW123777   2.985   4.569   0.771
 4366SOL    HW223778   2.836   4.576   0.703
 4367SOL     OW23779   1.995   7.540   1.667
 4367SOL    HW123780   2.077   7.575   1.712
 4367SOL    HW223781   1.926   7.613   1.663
 4368SOL     OW23782   0.221   2.691   1.957
 4368SOL    HW123783   0.275   2.738   1.888
 4368SOL    HW223784   0.257   2.598   1.970
 4369SOL     OW23785   4.129   8.126   0.103
 4369SOL    HW123786   4.117   8.067   0.183
 4369SOL    HW223787   4.227   8.136   0.084
 4370SOL     OW23788   2.242   5.755   1.477
 4370SOL    HW123789   2.171   5.692   1.444
 4370SOL    HW223790   2.227   5.774   1.574
 4371SOL     OW23791   9.590   7.114   3.132
 4371SOL    HW123792   9.512   7.092   3.073
 4371SOL    HW223793   9.613   7.211   3.121
 4372SOL     OW23794   7.738   7.110   3.703
 4372SOL    HW123795   7.719   7.075   3.795
 4372SOL    HW223796   7.755   7.208   3.707
 4373SOL     OW23797   3.732   1.243   0.265
 4373SOL    HW123798   3.808   1.306   0.275
 4373SOL    HW223799   3.657   1.271   0.326
 4374SOL     OW23800   9.875   5.863   1.640
 4374SOL    HW123801   9.871   5.962   1.628
 4374SOL    HW223802   9.842   5.818   1.557
 4375SOL     OW23803   3.195   3.230   0.948
 4375SOL    HW123804   3.127   3.293   0.911
 4375SOL    HW223805   3.213   3.252   1.044
 4376SOL     OW23806   0.198   1.531   0.252
 4376SOL    HW123807   0.218   1.471   0.329
 4376SOL    HW223808   0.279   1.540   0.194
 4377SOL     OW23809   9.072   6.620   0.534
 4377SOL    HW123810   9.008   6.682   0.489
 4377SOL    HW223811   9.049   6.613   0.631
 4378SOL     OW23812   4.816   1.813   0.856
 4378SOL    HW123813   4.807   1.877   0.932
 4378SOL    HW223814   4.726   1.779   0.830
 4379SOL     OW23815   6.410   8.737   1.950
 4379SOL    HW123816   6.374   8.814   1.897
 4379SOL    HW223817   6.500   8.712   1.913
 4380SOL     OW23818   5.377   1.253   3.134
 4380SOL    HW123819   5.332   1.273   3.221
 4380SOL    HW223820   5.454   1.315   3.121
 4381SOL     OW23821   9.028   7.563   2.102
 4381SOL    HW123822   8.944   7.532   2.057
 4381SOL    HW223823   9.027   7.663   2.109
 4382SOL     OW23824   8.751   4.667   2.504
 4382SOL    HW123825   8.743   4.758   2.546
 4382SOL    HW223826   8.844   4.633   2.517
 4383SOL     OW23827   8.129   7.308   3.000
 4383SOL    HW123828   8.063   7.374   2.963
 4383SOL    HW223829   8.082   7.223   3.021
 4384SOL     OW23830   2.045   7.762   0.594
 4384SOL    HW123831   1.948   7.736   0.590
 4384SOL    HW223832   2.060   7.842   0.536
 4385SOL     OW23833   7.514   1.133   2.773
 4385SOL    HW123834   7.450   1.069   2.815
 4385SOL    HW223835   7.602   1.128   2.821
 4386SOL     OW23836   6.913   8.140   1.462
 4386SOL    HW123837   6.838   8.194   1.500
 4386SOL    HW223838   6.974   8.200   1.410
 4387SOL     OW23839   8.835   2.274   1.636
 4387SOL    HW123840   8.790   2.363   1.633
 4387SOL    HW223841   8.833   2.233   1.545
 4388SOL     OW23842   8.338   7.228   3.583
 4388SOL    HW123843   8.378   7.236   3.674
 4388SOL    HW223844   8.364   7.307   3.528
 4389SOL     OW23845   6.466   0.545   3.040
 4389SOL    HW123846   6.565   0.537   3.056
 4389SOL    HW223847   6.446   0.636   3.005
 4390SOL     OW23848   7.357   2.327   3.421
 4390SOL    HW123849   7.359   2.287   3.329
 4390SOL    HW223850   7.278   2.290   3.471
 4391SOL     OW23851   3.282   6.969   4.007
 4391SOL    HW123852   3.296   6.986   3.909
 4391SOL    HW223853   3.229   7.044   4.047
 4392SOL     OW23854   2.083   2.683   3.294
 4392SOL    HW123855   2.129   2.771   3.282
 4392SOL    HW223856   1.992   2.699   3.333
 4393SOL     OW23857   6.061   1.639   2.287
 4393SOL    HW123858   6.099   1.667   2.376
 4393SOL    HW223859   5.995   1.707   2.257
 4394SOL     OW23860   0.248   7.483   2.275
 4394SOL    HW123861   0.160   7.525   2.299
 4394SOL    HW223862   0.274   7.418   2.346
 4395SOL     OW23863   0.503   8.418   0.058
 4395SOL    HW123864   0.408   8.387   0.061
 4395SOL    HW223865   0.507   8.513   0.089
 4396SOL     OW23866   6.590   9.606   0.996
 4396SOL    HW123867   6.652   9.605   0.917
 4396SOL    HW223868   6.643   9.619   1.080
 4397SOL     OW23869   3.974   7.040   2.208
 4397SOL    HW123870   4.068   7.006   2.203
 4397SOL    HW223871   3.974   7.139   2.195
 4398SOL     OW23872   5.051   1.194   0.958
 4398SOL    HW123873   4.952   1.197   0.950
 4398SOL    HW223874   5.079   1.222   1.050
 4399SOL     OW23875   7.993   1.389   1.685
 4399SOL    HW123876   7.920   1.448   1.652
 4399SOL    HW223877   8.031   1.426   1.770
 4400SOL     OW23878   0.883   7.467   1.385
 4400SOL    HW123879   0.945   7.398   1.347
 4400SOL    HW223880   0.793   7.458   1.343
 4401SOL     OW23881   2.910   0.365   2.050
 4401SOL    HW123882   2.866   0.423   1.981
 4401SOL    HW223883   2.997   0.406   2.077
 4402SOL     OW23884   3.080   6.119   1.057
 4402SOL    HW123885   3.124   6.107   1.146
 4402SOL    HW223886   3.038   6.210   1.052
 4403SOL     OW23887   9.339   7.105   2.994
 4403SOL    HW123888   9.331   7.197   2.956
 4403SOL    HW223889   9.270   7.092   3.066
 4404SOL     OW23890   7.960   7.001   1.973
 4404SOL    HW123891   7.901   7.064   2.022
 4404SOL    HW223892   8.049   6.996   2.018
 4405SOL     OW23893   9.293   0.224   2.234
 4405SOL    HW123894   9.368   0.251   2.175
 4405SOL    HW223895   9.276   0.297   2.301
 4406SOL     OW23896   3.070   5.713   2.913
 4406SOL    HW123897   3.009   5.643   2.950
 4406SOL    HW223898   3.108   5.767   2.987
 4407SOL     OW23899   9.877   7.380   2.932
 4407SOL    HW123900   9.886   7.281   2.918
 4407SOL    HW223901   9.963   7.416   2.970
 4408SOL     OW23902   1.922   6.749   2.958
 4408SOL    HW123903   1.896   6.840   2.990
 4408SOL    HW223904   1.934   6.688   3.036
 4409SOL     OW23905   1.792   1.423   1.446
 4409SOL    HW123906   1.739   1.504   1.420
 4409SOL    HW223907   1.739   1.341   1.424
 4410SOL     OW23908   9.980   5.564   1.032
 4410SOL    HW123909   0.041   5.511   1.091
 4410SOL    HW223910   9.953   5.648   1.078
 4411SOL     OW23911   7.657   9.714   2.639
 4411SOL    HW123912   7.654   9.626   2.687
 4411SOL    HW223913   7.742   9.720   2.588
 4412SOL     OW23914   7.928   2.691   1.687
 4412SOL    HW123915   7.969   2.716   1.599
 4412SOL    HW223916   7.843   2.641   1.671
 4413SOL     OW23917   1.410   1.172   2.116
 4413SOL    HW123918   1.313   1.193   2.128
 4413SOL    HW223919   1.463   1.257   2.113
 4414SOL     OW23920   4.969   7.636   2.445
 4414SOL    HW123921   4.925   7.600   2.362
 4414SOL    HW223922   4.901   7.684   2.500
 4415SOL     OW23923   6.517   8.826   3.362
 4415SOL    HW123924   6.610   8.793   3.352
 4415SOL    HW223925   6.466   8.810   3.277
 4416SOL     OW23926   3.911   9.143   1.627
 4416SOL    HW123927   3.827   9.164   1.676
 4416SOL    HW223928   3.974   9.094   1.688
 4417SOL     OW23929   8.763   6.477   0.144
 4417SOL    HW123930   8.741   6.473   0.242
 4417SOL    HW223931   8.841   6.537   0.130
 4418SOL     OW23932   3.579   0.260   3.767
 4418SOL    HW123933   3.665   0.210   3.778
 4418SOL    HW223934   3.515   0.232   3.838
 4419SOL     OW23935   9.843   3.310   1.754
 4419SOL    HW123936   9.882   3.218   1.745
 4419SOL    HW223937   9.844   3.337   1.851
 4420SOL     OW23938   0.699   9.111   1.928
 4420SOL    HW123939   0.718   9.166   1.847
 4420SOL    HW223940   0.784   9.072   1.964
 4421SOL     OW23941   0.820   4.816   3.940
 4421SOL    HW123942   0.755   4.822   4.016
 4421SOL    HW223943   0.900   4.872   3.961
 4422SOL     OW23944   7.387   0.291   3.367
 4422SOL    HW123945   7.455   0.251   3.429
 4422SOL    HW223946   7.434   0.343   3.296
 4423SOL     OW23947   9.856   5.294   4.399
 4423SOL    HW123948   9.893   5.222   4.340
 4423SOL    HW223949   9.786   5.256   4.459
 4424SOL     OW23950   5.078   8.256   2.140
 4424SOL    HW123951   5.073   8.166   2.096
 4424SOL    HW223952   5.094   8.326   2.071
 4425SOL     OW23953   2.228   9.439   1.176
 4425SOL    HW123954   2.283   9.417   1.256
 4425SOL    HW223955   2.274   9.407   1.093
 4426SOL     OW23956   8.160   9.722   3.422
 4426SOL    HW123957   8.180   9.658   3.496
 4426SOL    HW223958   8.239   9.782   3.408
 4427SOL     OW23959   9.728   2.677   3.322
 4427SOL    HW123960   9.695   2.589   3.288
 4427SOL    HW223961   9.651   2.728   3.360
 4428SOL     OW23962   7.509   5.248   3.985
 4428SOL    HW123963   7.583   5.308   3.954
 4428SOL    HW223964   7.534   5.153   3.966
 4429SOL     OW23965   2.443   2.930   3.909
 4429SOL    HW123966   2.497   2.989   3.969
 4429SOL    HW223967   2.424   2.844   3.956
 4430SOL     OW23968   9.981   0.350   2.833
 4430SOL    HW123969   9.903   0.411   2.843
 4430SOL    HW223970   0.020   0.361   2.741
 4431SOL     OW23971   4.032   9.569   1.368
 4431SOL    HW123972   3.965   9.613   1.428
 4431SOL    HW223973   4.030   9.470   1.382
 4432SOL     OW23974   4.275   5.169   1.342
 4432SOL    HW123975   4.371   5.196   1.349
 4432SOL    HW223976   4.223   5.210   1.416
 4433SOL     OW23977   1.536   4.338   2.468
 4433SOL    HW123978   1.598   4.260   2.475
 4433SOL    HW223979   1.537   4.373   2.375
 4434SOL     OW23980   2.787   4.572   3.303
 4434SOL    HW123981   2.770   4.504   3.374
 4434SOL    HW223982   2.757   4.536   3.214
 4435SOL     OW23983   4.703   1.368   0.806
 4435SOL    HW123984   4.786   1.383   0.754
 4435SOL    HW223985   4.726   1.339   0.899
 4436SOL     OW23986   4.184   3.580   4.272
 4436SOL    HW123987   4.179   3.486   4.308
 4436SOL    HW223988   4.280   3.606   4.262
 4437SOL     OW23989   2.563   7.912   0.267
 4437SOL    HW123990   2.498   7.898   0.341
 4437SOL    HW223991   2.592   8.008   0.266
 4438SOL     OW23992   6.936   0.033   3.484
 4438SOL    HW123993   6.890   0.064   3.567
 4438SOL    HW223994   6.956   0.112   3.426
 4439SOL     OW23995   8.809   0.879   3.159
 4439SOL    HW123996   8.771   0.811   3.097
 4439SOL    HW223997   8.780   0.859   3.253
 4440SOL     OW23998   2.667   2.388   0.099
 4440SOL    HW123999   2.591   2.327   0.075
 4440SOL    HW224000   2.642   2.482   0.074
 4441SOL     OW24001   7.625   0.721   3.733
 4441SOL    HW124002   7.596   0.746   3.641
 4441SOL    HW224003   7.546   0.720   3.794
 4442SOL     OW24004   4.535   3.422   4.293
 4442SOL    HW124005   4.508   3.517   4.279
 4442SOL    HW224006   4.596   3.394   4.219
 4443SOL     OW24007   7.681   6.814   2.709
 4443SOL    HW124008   7.621   6.886   2.673
 4443SOL    HW224009   7.774   6.829   2.675
 4444SOL     OW24010   8.986   2.606   1.066
 4444SOL    HW124011   8.951   2.529   1.013
 4444SOL    HW224012   9.085   2.607   1.061
 4445SOL     OW24013   3.046   8.338   4.209
 4445SOL    HW124014   3.079   8.245   4.223
 4445SOL    HW224015   3.013   8.348   4.115
 4446SOL     OW24016   1.274   1.603   2.345
 4446SOL    HW124017   1.326   1.622   2.261
 4446SOL    HW224018   1.312   1.657   2.420
 4447SOL     OW24019   9.282   1.545   3.890
 4447SOL    HW124020   9.338   1.467   3.861
 4447SOL    HW224021   9.215   1.515   3.958
 4448SOL     OW24022   4.327   1.977   4.286
 4448SOL    HW124023   4.410   2.012   4.243
 4448SOL    HW224024   4.289   1.904   4.229
 4449SOL     OW24025   9.591   4.162   1.260
 4449SOL    HW124026   9.596   4.102   1.179
 4449SOL    HW224027   9.683   4.176   1.297
 4450SOL     OW24028   6.253   7.844   2.978
 4450SOL    HW124029   6.231   7.834   2.881
 4450SOL    HW224030   6.269   7.753   3.017
 4451SOL     OW24031   6.673   7.957   3.546
 4451SOL    HW124032   6.666   7.931   3.642
 4451SOL    HW224033   6.651   7.878   3.489
 4452SOL     OW24034   1.615   0.080   1.892
 4452SOL    HW124035   1.709   0.080   1.927
 4452SOL    HW224036   1.612   0.127   1.804
 4453SOL     OW24037   2.593   7.426   0.358
 4453SOL    HW124038   2.669   7.436   0.294
 4453SOL    HW224039   2.625   7.378   0.440
 4454SOL     OW24040   8.993   6.356   4.342
 4454SOL    HW124041   8.958   6.268   4.310
 4454SOL    HW224042   8.916   6.418   4.360
 4455SOL     OW24043   9.524   4.397   2.666
 4455SOL    HW124044   9.560   4.305   2.679
 4455SOL    HW224045   9.442   4.409   2.722
 4456SOL     OW24046   0.245   4.164   3.242
 4456SOL    HW124047   0.179   4.230   3.204
 4456SOL    HW224048   0.312   4.140   3.172
 4457SOL     OW24049   1.665   3.910   3.041
 4457SOL    HW124050   1.602   3.896   2.964
 4457SOL    HW224051   1.719   3.993   3.026
 4458SOL     OW24052   3.691   7.589   4.014
 4458SOL    HW124053   3.688   7.670   4.073
 4458SOL    HW224054   3.682   7.617   3.918
 4459SOL     OW24055   1.593   8.717   2.819
 4459SOL    HW124056   1.605   8.783   2.892
 4459SOL    HW224057   1.638   8.631   2.843
 4460SOL     OW24058   0.093   2.584   2.458
 4460SOL    HW124059   0.103   2.641   2.376
 4460SOL    HW224060   0.056   2.494   2.432
 4461SOL     OW24061   9.354   2.429   1.242
 4461SOL    HW124062   9.310   2.459   1.326
 4461SOL    HW224063   9.319   2.340   1.215
 4462SOL     OW24064   5.913   8.089   1.463
 4462SOL    HW124065   5.834   8.085   1.402
 4462SOL    HW224066   5.918   8.180   1.505
 4463SOL     OW24067   3.750   0.899   3.898
 4463SOL    HW124068   3.786   0.945   3.980
 4463SOL    HW224069   3.822   0.841   3.859
 4464SOL     OW24070   4.837   4.022   0.713
 4464SOL    HW124071   4.841   4.097   0.778
 4464SOL    HW224072   4.890   4.046   0.631
 4465SOL     OW24073   7.044   9.451   3.806
 4465SOL    HW124074   7.037   9.522   3.876
 4465SOL    HW224075   7.044   9.494   3.716
 4466SOL     OW24076   7.954   1.558   2.934
 4466SOL    HW124077   8.017   1.589   2.862
 4466SOL    HW224078   7.862   1.550   2.897
 4467SOL     OW24079   3.656   8.338   2.058
 4467SOL    HW124080   3.753   8.351   2.080
 4467SOL    HW224081   3.614   8.277   2.125
 4468SOL     OW24082   6.838   6.563   3.629
 4468SOL    HW124083   6.759   6.598   3.579
 4468SOL    HW224084   6.810   6.485   3.685
 4469SOL     OW24085   5.622   6.867   2.437
 4469SOL    HW124086   5.650   6.804   2.365
 4469SOL    HW224087   5.684   6.858   2.515
 4470SOL     OW24088   0.680   3.045   0.412
 4470SOL    HW124089   0.723   3.016   0.497
 4470SOL    HW224090   0.630   3.130   0.427
 4471SOL     OW24091   1.433   3.498   4.063
 4471SOL    HW124092   1.515   3.532   4.110
 4471SOL    HW224093   1.432   3.398   4.068
 4472SOL     OW24094   1.768   0.009   0.641
 4472SOL    HW124095   1.758   9.944   0.565
 4472SOL    HW224096   1.679   0.023   0.684
 4473SOL     OW24097   3.694   2.861   3.798
 4473SOL    HW124098   3.741   2.932   3.745
 4473SOL    HW224099   3.758   2.820   3.863
 4474SOL     OW24100   3.398   0.204   1.022
 4474SOL    HW124101   3.342   0.254   0.956
 4474SOL    HW224102   3.349   0.197   1.108
 4475SOL     OW24103   9.057   8.695   0.128
 4475SOL    HW124104   9.002   8.637   0.188
 4475SOL    HW224105   8.999   8.765   0.088
 4476SOL     OW24106   7.903   5.301   0.293
 4476SOL    HW124107   7.855   5.318   0.379
 4476SOL    HW224108   7.883   5.376   0.229
 4477SOL     OW24109   4.507   2.045   2.427
 4477SOL    HW124110   4.428   2.054   2.367
 4477SOL    HW224111   4.477   2.052   2.523
 4478SOL     OW24112   7.528   2.843   1.001
 4478SOL    HW124113   7.509   2.941   0.991
 4478SOL    HW224114   7.489   2.809   1.086
 4479SOL     OW24115   2.495   6.731   4.285
 4479SOL    HW124116   2.421   6.666   4.298
 4479SOL    HW224117   2.584   6.685   4.294
 4480SOL     OW24118   8.055   9.363   0.080
 4480SOL    HW124119   8.123   9.305   0.124
 4480SOL    HW224120   7.967   9.316   0.077
 4481SOL     OW24121   4.471   6.736   1.708
 4481SOL    HW124122   4.481   6.831   1.679
 4481SOL    HW224123   4.553   6.685   1.681
 4482SOL     OW24124   9.932   8.982   2.406
 4482SOL    HW124125   9.878   8.899   2.389
 4482SOL    HW224126   9.873   9.053   2.445
 4483SOL     OW24127   1.753   0.204   2.518
 4483SOL    HW124128   1.775   0.264   2.595
 4483SOL    HW224129   1.776   0.109   2.542
 4484SOL     OW24130   1.842   4.385   0.082
 4484SOL    HW124131   1.849   4.418   5.622
 4484SOL    HW224132   1.860   4.460   0.146
 4485SOL     OW24133   2.498   6.561   3.247
 4485SOL    HW124134   2.581   6.566   3.303
 4485SOL    HW224135   2.450   6.649   3.251
 4486SOL     OW24136   9.470   0.699   1.164
 4486SOL    HW124137   9.476   0.788   1.208
 4486SOL    HW224138   9.523   0.700   1.079
 4487SOL     OW24139   9.225   9.104   1.643
 4487SOL    HW124140   9.176   9.191   1.648
 4487SOL    HW224141   9.323   9.120   1.653
 4488SOL     OW24142   9.144   3.731   1.734
 4488SOL    HW124143   9.164   3.685   1.648
 4488SOL    HW224144   9.218   3.794   1.756
 4489SOL     OW24145   1.955   8.717   1.903
 4489SOL    HW124146   2.050   8.724   1.934
 4489SOL    HW224147   1.900   8.787   1.950
 4490SOL     OW24148   3.516   2.352   3.549
 4490SOL    HW124149   3.565   2.437   3.571
 4490SOL    HW224150   3.418   2.366   3.557
 4491SOL     OW24151   2.832   9.393   4.156
 4491SOL    HW124152   2.921   9.410   4.200
 4491SOL    HW224153   2.761   9.443   4.206
 4492SOL     OW24154   0.560   4.210   1.717
 4492SOL    HW124155   0.566   4.111   1.715
 4492SOL    HW224156   0.561   4.246   1.623
 4493SOL     OW24157   9.225   2.479   3.909
 4493SOL    HW124158   9.284   2.405   3.878
 4493SOL    HW224159   9.132   2.446   3.917
 4494SOL     OW24160   1.765   6.083   0.943
 4494SOL    HW124161   1.846   6.073   1.001
 4494SOL    HW224162   1.759   6.177   0.911
 4495SOL     OW24163   7.718   1.642   1.327
 4495SOL    HW124164   7.770   1.694   1.260
 4495SOL    HW224165   7.662   1.574   1.280
 4496SOL     OW24166   4.712   2.258   3.987
 4496SOL    HW124167   4.670   2.323   3.924
 4496SOL    HW224168   4.797   2.223   3.947
 4497SOL     OW24169   4.548   2.371   1.632
 4497SOL    HW124170   4.528   2.281   1.593
 4497SOL    HW224171   4.512   2.376   1.725
 4498SOL     OW24172   8.609   6.116   1.747
 4498SOL    HW124173   8.518   6.148   1.774
 4498SOL    HW224174   8.641   6.046   1.811
 4499SOL     OW24175   7.169   0.102   1.691
 4499SOL    HW124176   7.117   0.187   1.703
 4499SOL    HW224177   7.136   0.033   1.754
 4500SOL     OW24178   9.778   0.782   2.888
 4500SOL    HW124179   9.779   0.820   2.795
 4500SOL    HW224180   9.839   0.836   2.946
 4501SOL     OW24181   2.785   1.847   3.805
 4501SOL    HW124182   2.793   1.784   3.728
 4501SOL    HW224183   2.719   1.919   3.783
 4502SOL     OW24184   9.777   9.194   2.487
 4502SOL    HW124185   9.819   9.284   2.498
 4502SOL    HW224186   9.700   9.200   2.423
 4503SOL     OW24187   0.609   8.456   2.133
 4503SOL    HW124188   0.622   8.545   2.177
 4503SOL    HW224189   0.659   8.386   2.184
 4504SOL     OW24190   3.189   5.794   1.504
 4504SOL    HW124191   3.273   5.809   1.557
 4504SOL    HW224192   3.212   5.785   1.407
 4505SOL     OW24193   8.201   0.402   0.758
 4505SOL    HW124194   8.155   0.479   0.801
 4505SOL    HW224195   8.221   0.332   0.828
 4506SOL     OW24196   9.005   7.355   2.285
 4506SOL    HW124197   9.029   7.440   2.238
 4506SOL    HW224198   9.051   7.278   2.242
 4507SOL     OW24199   1.272   1.289   0.215
 4507SOL    HW124200   1.202   1.345   0.171
 4507SOL    HW224201   1.297   1.329   0.303
 4508SOL     OW24202   1.962   7.475   3.658
 4508SOL    HW124203   1.947   7.572   3.676
 4508SOL    HW224204   1.887   7.440   3.602
 4509SOL     OW24205   0.266   6.814   0.235
 4509SOL    HW124206   0.304   6.767   0.316
 4509SOL    HW224207   0.250   6.747   0.163
 4510SOL     OW24208   8.542   7.736   3.007
 4510SOL    HW124209   8.627   7.761   3.053
 4510SOL    HW224210   8.465   7.759   3.065
 4511SOL     OW24211   0.521   1.079   2.838
 4511SOL    HW124212   0.603   1.086   2.893
 4511SOL    HW224213   0.506   0.983   2.812
 4512SOL     OW24214   2.080   5.742   3.796
 4512SOL    HW124215   2.126   5.831   3.799
 4512SOL    HW224216   2.079   5.708   3.702
 4513SOL     OW24217   3.435   1.234   2.389
 4513SOL    HW124218   3.381   1.203   2.311
 4513SOL    HW224219   3.526   1.262   2.357
 4514SOL     OW24220   7.292   9.056   0.926
 4514SOL    HW124221   7.199   9.067   0.962
 4514SOL    HW224222   7.354   9.033   1.001
 4515SOL     OW24223   8.272   5.844   0.541
 4515SOL    HW124224   8.228   5.826   0.453
 4515SOL    HW224225   8.368   5.819   0.536
 4516SOL     OW24226   9.946   9.247   0.085
 4516SOL    HW124227   0.038   9.262   0.122
 4516SOL    HW224228   9.901   9.173   0.135
 4517SOL     OW24229   4.794   3.467   0.087
 4517SOL    HW124230   4.877   3.428   0.127
 4517SOL    HW224231   4.811   3.488   5.624
 4518SOL     OW24232   1.295   0.662   2.916
 4518SOL    HW124233   1.370   0.684   2.853
 4518SOL    HW224234   1.269   0.566   2.905
 4519SOL     OW24235   7.108   9.476   0.761
 4519SOL    HW124236   7.074   9.419   0.835
 4519SOL    HW224237   7.208   9.471   0.757
 4520SOL     OW24238   1.759   1.855   0.658
 4520SOL    HW124239   1.717   1.940   0.687
 4520SOL    HW224240   1.768   1.793   0.736
 4521SOL     OW24241   3.781   0.496   1.298
 4521SOL    HW124242   3.863   0.524   1.248
 4521SOL    HW224243   3.781   0.396   1.307
 4522SOL     OW24244   4.517   3.789   0.130
 4522SOL    HW124245   4.455   3.861   0.161
 4522SOL    HW224246   4.487   3.701   0.165
 4523SOL     OW24247   8.056   5.799   2.531
 4523SOL    HW124248   8.078   5.797   2.433
 4523SOL    HW224249   7.959   5.817   2.543
 4524SOL     OW24250   3.745   1.294   1.118
 4524SOL    HW124251   3.753   1.221   1.186
 4524SOL    HW224252   3.650   1.302   1.088
 4525SOL     OW24253   4.180   7.548   2.310
 4525SOL    HW124254   4.144   7.460   2.340
 4525SOL    HW224255   4.270   7.563   2.352
 4526SOL     OW24256   9.413   5.102   3.566
 4526SOL    HW124257   9.415   5.066   3.659
 4526SOL    HW224258   9.410   5.027   3.501
 4527SOL     OW24259   1.124   9.960   1.737
 4527SOL    HW124260   1.026   9.979   1.731
 4527SOL    HW224261   1.151   9.949   1.833
 4528SOL     OW24262   4.981   4.077   0.487
 4528SOL    HW124263   4.991   3.989   0.442
 4528SOL    HW224264   4.945   4.144   0.422
 4529SOL     OW24265   8.100   1.631   1.250
 4529SOL    HW124266   8.054   1.543   1.242
 4529SOL    HW224267   8.198   1.620   1.232
 4530SOL     OW24268   2.183   8.173   3.778
 4530SOL    HW124269   2.084   8.186   3.768
 4530SOL    HW224270   2.231   8.251   3.739
 4531SOL     OW24271   6.964   7.546   1.656
 4531SOL    HW124272   6.963   7.480   1.731
 4531SOL    HW224273   6.871   7.582   1.642
 4532SOL     OW24274   7.312   7.381   2.216
 4532SOL    HW124275   7.261   7.295   2.223
 4532SOL    HW224276   7.332   7.400   2.120
 4533SOL     OW24277   8.166   6.677   0.289
 4533SOL    HW124278   8.103   6.634   0.225
 4533SOL    HW224279   8.253   6.628   0.289
 4534SOL     OW24280   2.545   5.276   2.701
 4534SOL    HW124281   2.630   5.272   2.648
 4534SOL    HW224282   2.489   5.196   2.678
 4535SOL     OW24283   0.956   5.829   2.574
 4535SOL    HW124284   0.963   5.851   2.671
 4535SOL    HW224285   1.048   5.828   2.534
 4536SOL     OW24286   1.216   7.547   3.045
 4536SOL    HW124287   1.124   7.559   3.082
 4536SOL    HW224288   1.229   7.611   2.969
 4537SOL     OW24289   1.608   8.261   2.348
 4537SOL    HW124290   1.698   8.248   2.389
 4537SOL    HW224291   1.573   8.351   2.373
 4538SOL     OW24292   6.023   0.324   1.008
 4538SOL    HW124293   5.971   0.348   1.090
 4538SOL    HW224294   6.052   0.408   0.962
 4539SOL     OW24295   8.043   0.910   4.060
 4539SOL    HW124296   7.991   0.992   4.035
 4539SOL    HW224297   7.996   0.829   4.026
 4540SOL     OW24298   1.022   7.569   2.606
 4540SOL    HW124299   1.105   7.513   2.602
 4540SOL    HW224300   1.039   7.656   2.560
 4541SOL     OW24301   2.452   9.324   3.423
 4541SOL    HW124302   2.361   9.362   3.407
 4541SOL    HW224303   2.474   9.260   3.350
 4542SOL     OW24304   2.913   3.004   2.108
 4542SOL    HW124305   2.988   2.966   2.162
 4542SOL    HW224306   2.851   2.931   2.082
 4543SOL     OW24307   7.703   2.540   1.646
 4543SOL    HW124308   7.683   2.509   1.553
 4543SOL    HW224309   7.642   2.494   1.710
 4544SOL     OW24310   9.363   7.152   2.602
 4544SOL    HW124311   9.309   7.093   2.543
 4544SOL    HW224312   9.321   7.243   2.607
 4545SOL     OW24313   2.462   4.288   2.684
 4545SOL    HW124314   2.443   4.384   2.665
 4545SOL    HW224315   2.544   4.280   2.740
 4546SOL     OW24316   9.603   1.045   1.018
 4546SOL    HW124317   9.653   1.131   1.009
 4546SOL    HW224318   9.663   0.977   1.062
 4547SOL     OW24319   7.790   5.241   4.175
 4547SOL    HW124320   7.833   5.331   4.184
 4547SOL    HW224321   7.697   5.245   4.214
 4548SOL     OW24322   9.693   6.442   4.342
 4548SOL    HW124323   9.619   6.502   4.311
 4548SOL    HW224324   9.676   6.349   4.310
 4549SOL     OW24325   6.747   7.413   3.065
 4549SOL    HW124326   6.756   7.459   2.977
 4549SOL    HW224327   6.650   7.399   3.086
 4550SOL     OW24328   9.574   1.121   3.001
 4550SOL    HW124329   9.578   1.057   3.078
 4550SOL    HW224330   9.582   1.215   3.034
 4551SOL     OW24331   3.717   1.147   1.600
 4551SOL    HW124332   3.767   1.216   1.652
 4551SOL    HW224333   3.620   1.152   1.623
 4552SOL     OW24334   9.316   6.079   4.338
 4552SOL    HW124335   9.283   6.014   4.269
 4552SOL    HW224336   9.305   6.172   4.304
 4553SOL     OW24337   9.081   8.002   4.290
 4553SOL    HW124338   9.052   7.907   4.298
 4553SOL    HW224339   9.179   8.005   4.275
 4554SOL     OW24340   3.073   6.150   1.501
 4554SOL    HW124341   3.101   6.190   1.588
 4554SOL    HW224342   2.989   6.097   1.515
 4555SOL     OW24343   2.846   2.708   1.372
 4555SOL    HW124344   2.911   2.784   1.364
 4555SOL    HW224345   2.888   2.625   1.336
 4556SOL     OW24346   3.961   9.173   0.677
 4556SOL    HW124347   3.932   9.249   0.735
 4556SOL    HW224348   3.949   9.198   0.581
 4557SOL     OW24349   4.532   2.943   3.988
 4557SOL    HW124350   4.446   2.983   3.954
 4557SOL    HW224351   4.602   2.949   3.917
 4558SOL     OW24352   0.851   3.950   0.825
 4558SOL    HW124353   0.909   3.955   0.743
 4558SOL    HW224354   0.872   4.027   0.885
 4559SOL     OW24355   9.235   4.703   1.055
 4559SOL    HW124356   9.290   4.697   0.972
 4559SOL    HW224357   9.289   4.674   1.134
 4560SOL     OW24358   8.596   7.488   2.893
 4560SOL    HW124359   8.511   7.436   2.886
 4560SOL    HW224360   8.576   7.581   2.925
 4561SOL     OW24361   3.516   4.585   1.581
 4561SOL    HW124362   3.506   4.509   1.646
 4561SOL    HW224363   3.566   4.553   1.500
 4562SOL     OW24364   4.823   0.621   4.350
 4562SOL    HW124365   4.761   0.581   4.283
 4562SOL    HW224366   4.915   0.585   4.336
 4563SOL     OW24367   4.310   0.382   3.671
 4563SOL    HW124368   4.259   0.352   3.590
 4563SOL    HW224369   4.407   0.359   3.660
 4564SOL     OW24370   1.391   9.005   4.071
 4564SOL    HW124371   1.340   8.923   4.098
 4564SOL    HW224372   1.419   9.056   4.152
 4565SOL     OW24373   5.510   8.522   3.324
 4565SOL    HW124374   5.471   8.613   3.335
 4565SOL    HW224375   5.588   8.527   3.261
 4566SOL     OW24376   5.248   7.675   3.011
 4566SOL    HW124377   5.150   7.660   3.025
 4566SOL    HW224378   5.286   7.599   2.959
 4567SOL     OW24379   1.519   1.011   4.020
 4567SOL    HW124380   1.424   0.981   4.018
 4567SOL    HW224381   1.524   1.110   4.031
 4568SOL     OW24382   2.652   7.952   2.600
 4568SOL    HW124383   2.675   8.008   2.679
 4568SOL    HW224384   2.638   7.858   2.628
 4569SOL     OW24385   3.413   2.961   1.554
 4569SOL    HW124386   3.425   3.044   1.608
 4569SOL    HW224387   3.496   2.944   1.500
 4570SOL     OW24388   1.120   6.222   0.372
 4570SOL    HW124389   1.126   6.228   0.273
 4570SOL    HW224390   1.024   6.217   0.400
 4571SOL     OW24391   9.108   3.699   3.824
 4571SOL    HW124392   9.029   3.760   3.834
 4571SOL    HW224393   9.181   3.747   3.776
 4572SOL     OW24394   2.416   1.157   1.040
 4572SOL    HW124395   2.378   1.234   0.988
 4572SOL    HW224396   2.480   1.191   1.108
 4573SOL     OW24397   5.749   9.746   1.444
 4573SOL    HW124398   5.751   9.835   1.489
 4573SOL    HW224399   5.681   9.688   1.490
 4574SOL     OW24400   0.985   2.299   1.011
 4574SOL    HW124401   1.059   2.243   1.046
 4574SOL    HW224402   0.923   2.323   1.086
 4575SOL     OW24403   3.904   4.558   3.543
 4575SOL    HW124404   3.982   4.499   3.525
 4575SOL    HW224405   3.847   4.565   3.461
 4576SOL     OW24406   2.895   3.220   0.394
 4576SOL    HW124407   2.881   3.194   0.299
 4576SOL    HW224408   2.989   3.197   0.421
 4577SOL     OW24409   4.071   7.974   2.409
 4577SOL    HW124410   4.107   7.909   2.475
 4577SOL    HW224411   3.989   8.017   2.445
 4578SOL     OW24412   1.226   6.052   1.162
 4578SOL    HW124413   1.305   6.030   1.219
 4578SOL    HW224414   1.171   6.122   1.206
 4579SOL     OW24415   1.329   6.636   0.158
 4579SOL    HW124416   1.244   6.688   0.171
 4579SOL    HW224417   1.323   6.550   0.208
 4580SOL     OW24418   0.366   1.086   4.332
 4580SOL    HW124419   0.315   1.096   4.247
 4580SOL    HW224420   0.307   1.110   4.409
 4581SOL     OW24421   0.254   3.076   1.686
 4581SOL    HW124422   0.157   3.091   1.668
 4581SOL    HW224423   0.273   3.097   1.782
 4582SOL     OW24424   0.229   1.170   0.074
 4582SOL    HW124425   0.154   1.235   0.086
 4582SOL    HW224426   0.316   1.220   0.069
 4583SOL     OW24427   2.609   2.884   4.326
 4583SOL    HW124428   2.609   2.952   4.399
 4583SOL    HW224429   2.517   2.847   4.315
 4584SOL     OW24430   1.697   8.153   2.108
 4584SOL    HW124431   1.614   8.119   2.063
 4584SOL    HW224432   1.672   8.205   2.190
 4585SOL     OW24433   2.440   0.205   0.140
 4585SOL    HW124434   2.510   0.275   0.149
 4585SOL    HW224435   2.404   0.205   0.047
 4586SOL     OW24436   7.378   7.408   1.950
 4586SOL    HW124437   7.332   7.359   1.875
 4586SOL    HW224438   7.360   7.506   1.941
 4587SOL     OW24439   4.506   7.069   1.235
 4587SOL    HW124440   4.452   7.019   1.302
 4587SOL    HW224441   4.533   7.008   1.161
 4588SOL     OW24442   0.858   6.176   0.400
 4588SOL    HW124443   0.801   6.255   0.378
 4588SOL    HW224444   0.801   6.103   0.437
 4589SOL     OW24445   1.427   3.976   0.454
 4589SOL    HW124446   1.364   3.975   0.376
 4589SOL    HW224447   1.375   3.964   0.539
 4590SOL     OW24448   3.116   6.835   2.447
 4590SOL    HW124449   3.038   6.778   2.421
 4590SOL    HW224450   3.131   6.829   2.546
 4591SOL     OW24451   1.109   2.461   3.370
 4591SOL    HW124452   1.198   2.418   3.386
 4591SOL    HW224453   1.119   2.560   3.378
 4592SOL     OW24454   2.855   5.295   4.034
 4592SOL    HW124455   2.777   5.239   4.007
 4592SOL    HW224456   2.850   5.315   4.132
 4593SOL     OW24457   7.887   0.041   3.405
 4593SOL    HW124458   7.966   0.056   3.346
 4593SOL    HW224459   7.869   0.124   3.459
 4594SOL     OW24460   5.359   0.038   3.678
 4594SOL    HW124461   5.384   9.942   3.683
 4594SOL    HW224462   5.422   0.086   3.616
 4595SOL     OW24463   1.125   5.940   3.657
 4595SOL    HW124464   1.029   5.926   3.633
 4595SOL    HW224465   1.139   6.035   3.686
 4596SOL     OW24466   2.401   9.101   1.297
 4596SOL    HW124467   2.303   9.101   1.317
 4596SOL    HW224468   2.415   9.102   1.198
 4597SOL     OW24469   3.778   4.343   3.851
 4597SOL    HW124470   3.825   4.266   3.896
 4597SOL    HW224471   3.840   4.420   3.845
 4598SOL     OW24472   1.598   4.649   3.874
 4598SOL    HW124473   1.597   4.746   3.849
 4598SOL    HW224474   1.519   4.628   3.932
 4599SOL     OW24475   3.698   2.889   4.171
 4599SOL    HW124476   3.628   2.954   4.201
 4599SOL    HW224477   3.654   2.807   4.135
 4600SOL     OW24478   3.143   3.699   1.794
 4600SOL    HW124479   3.201   3.630   1.838
 4600SOL    HW224480   3.099   3.659   1.713
 4601SOL     OW24481   3.322   4.809   4.261
 4601SOL    HW124482   3.285   4.878   4.198
 4601SOL    HW224483   3.372   4.855   4.334
 4602SOL     OW24484   8.385   3.839   0.165
 4602SOL    HW124485   8.454   3.911   0.162
 4602SOL    HW224486   8.304   3.869   0.113
 4603SOL     OW24487   2.708   9.898   2.940
 4603SOL    HW124488   2.681   9.907   2.844
 4603SOL    HW224489   2.636   9.933   2.999
 4604SOL     OW24490   5.243   9.258   2.626
 4604SOL    HW124491   5.333   9.242   2.586
 4604SOL    HW224492   5.186   9.177   2.614
 4605SOL     OW24493   0.536   0.463   2.097
 4605SOL    HW124494   0.599   0.416   2.036
 4605SOL    HW224495   0.442   0.446   2.068
 4606SOL     OW24496   7.155   1.579   0.539
 4606SOL    HW124497   7.159   1.553   0.443
 4606SOL    HW224498   7.098   1.514   0.589
 4607SOL     OW24499   0.590   0.404   3.201
 4607SOL    HW124500   0.534   0.321   3.205
 4607SOL    HW224501   0.613   0.425   3.106
 4608SOL     OW24502   1.909   6.096   3.025
 4608SOL    HW124503   1.909   6.030   3.100
 4608SOL    HW224504   1.821   6.094   2.978
 4609SOL     OW24505   2.451   1.506   2.754
 4609SOL    HW124506   2.540   1.490   2.795
 4609SOL    HW224507   2.438   1.444   2.676
 4610SOL     OW24508   8.089   8.433   1.159
 4610SOL    HW124509   8.113   8.480   1.074
 4610SOL    HW224510   7.995   8.457   1.184
 4611SOL     OW24511   2.151   7.876   1.843
 4611SOL    HW124512   2.112   7.916   1.760
 4611SOL    HW224513   2.192   7.787   1.821
 4612SOL     OW24514   9.031   9.523   4.296
 4612SOL    HW124515   9.041   9.617   4.329
 4612SOL    HW224516   9.121   9.482   4.281
 4613SOL     OW24517   6.377   7.245   3.602
 4613SOL    HW124518   6.299   7.268   3.661
 4613SOL    HW224519   6.375   7.147   3.582
 4614SOL     OW24520   9.638   9.576   2.070
 4614SOL    HW124521   9.624   9.542   1.977
 4614SOL    HW224522   9.726   9.622   2.076
 4615SOL     OW24523   9.819   3.782   1.119
 4615SOL    HW124524   9.865   3.865   1.149
 4615SOL    HW224525   9.782   3.795   1.027
 4616SOL     OW24526   0.802   5.772   0.273
 4616SOL    HW124527   0.867   5.833   0.229
 4616SOL    HW224528   0.718   5.767   0.220
 4617SOL     OW24529   0.398   8.088   3.470
 4617SOL    HW124530   0.305   8.100   3.507
 4617SOL    HW224531   0.420   8.166   3.411
 4618SOL     OW24532   2.437   5.860   2.319
 4618SOL    HW124533   2.371   5.794   2.356
 4618SOL    HW224534   2.456   5.930   2.388
 4619SOL     OW24535   9.957   1.478   2.928
 4619SOL    HW124536   9.860   1.484   2.904
 4619SOL    HW224537   0.013   1.481   2.845
 4620SOL     OW24538   6.309   1.578   2.188
 4620SOL    HW124539   6.217   1.588   2.224
 4620SOL    HW224540   6.348   1.492   2.219
 4621SOL     OW24541   1.643   3.537   1.689
 4621SOL    HW124542   1.583   3.467   1.651
 4621SOL    HW224543   1.609   3.627   1.663
 4622SOL     OW24544   0.943   3.836   2.671
 4622SOL    HW124545   1.041   3.854   2.672
 4622SOL    HW224546   0.927   3.737   2.682
 4623SOL     OW24547   8.871   7.584   0.423
 4623SOL    HW124548   8.792   7.591   0.484
 4623SOL    HW224549   8.925   7.669   0.429
 4624SOL     OW24550   1.423   4.555   4.079
 4624SOL    HW124551   1.333   4.532   4.115
 4624SOL    HW224552   1.468   4.621   4.139
 4625SOL     OW24553   8.483   7.253   1.055
 4625SOL    HW124554   8.533   7.167   1.059
 4625SOL    HW224555   8.385   7.235   1.056
 4626SOL     OW24556   0.592   9.494   3.062
 4626SOL    HW124557   0.508   9.443   3.042
 4626SOL    HW224558   0.621   9.544   2.981
 4627SOL     OW24559   1.714   5.467   2.963
 4627SOL    HW124560   1.757   5.551   2.929
 4627SOL    HW224561   1.764   5.388   2.929
 4628SOL     OW24562   1.413   5.918   4.169
 4628SOL    HW124563   1.417   5.995   4.106
 4628SOL    HW224564   1.503   5.876   4.177
 4629SOL     OW24565   9.944   0.110   3.711
 4629SOL    HW124566   9.914   0.096   3.805
 4629SOL    HW224567   0.010   0.039   3.687
 4630SOL     OW24568   9.840   8.191   0.082
 4630SOL    HW124569   9.928   8.171   0.125
 4630SOL    HW224570   9.785   8.108   0.079
 4631SOL     OW24571   3.926   2.682   2.212
 4631SOL    HW124572   3.957   2.587   2.217
 4631SOL    HW224573   3.840   2.692   2.261
 4632SOL     OW24574   8.486   9.298   2.743
 4632SOL    HW124575   8.585   9.300   2.755
 4632SOL    HW224576   8.449   9.390   2.755
 4633SOL     OW24577   6.072   6.644   3.217
 4633SOL    HW124578   6.098   6.732   3.179
 4633SOL    HW224579   6.124   6.627   3.301
 4634SOL     OW24580   3.925   8.298   2.787
 4634SOL    HW124581   4.019   8.289   2.754
 4634SOL    HW224582   3.879   8.370   2.735
 4635SOL     OW24583   2.399   9.101   1.022
 4635SOL    HW124584   2.324   9.041   0.992
 4635SOL    HW224585   2.384   9.193   0.986
 4636SOL     OW24586   0.672   9.710   4.305
 4636SOL    HW124587   0.594   9.713   4.243
 4636SOL    HW224588   0.714   9.801   4.310
 4637SOL     OW24589   5.026   2.979   1.714
 4637SOL    HW124590   4.979   3.067   1.719
 4637SOL    HW224591   4.966   2.907   1.749
 4638SOL     OW24592   6.607   8.094   3.952
 4638SOL    HW124593   6.582   8.157   4.025
 4638SOL    HW224594   6.705   8.102   3.933
 4639SOL     OW24595   0.006   5.957   0.917
 4639SOL    HW124596   9.926   6.016   0.925
 4639SOL    HW224597   0.039   5.957   0.823
 4640SOL     OW24598   9.073   3.914   4.130
 4640SOL    HW124599   8.977   3.918   4.158
 4640SOL    HW224600   9.123   3.991   4.171
 4641SOL     OW24601   4.731   9.689   0.296
 4641SOL    HW124602   4.708   9.655   0.387
 4641SOL    HW224603   4.766   9.783   0.303
 4642SOL     OW24604   0.830   7.193   0.553
 4642SOL    HW124605   0.901   7.210   0.621
 4642SOL    HW224606   0.870   7.195   0.461
 4643SOL     OW24607   8.570   2.892   3.007
 4643SOL    HW124608   8.482   2.918   3.048
 4643SOL    HW224609   8.614   2.973   2.969
 4644SOL     OW24610   2.848   3.617   1.618
 4644SOL    HW124611   2.861   3.716   1.617
 4644SOL    HW224612   2.758   3.595   1.657
 4645SOL     OW24613   1.456   7.740   2.064
 4645SOL    HW124614   1.509   7.731   2.148
 4645SOL    HW224615   1.359   7.725   2.084
 4646SOL     OW24616   0.178   3.673   4.053
 4646SOL    HW124617   0.142   3.636   3.968
 4646SOL    HW224618   0.105   3.679   4.121
 4647SOL     OW24619   2.270   7.580   3.176
 4647SOL    HW124620   2.286   7.674   3.146
 4647SOL    HW224621   2.329   7.518   3.124
 4648SOL     OW24622   6.337   9.243   3.841
 4648SOL    HW124623   6.324   9.213   3.936
 4648SOL    HW224624   6.400   9.181   3.795
 4649SOL     OW24625   9.051   8.379   2.051
 4649SOL    HW124626   9.067   8.470   2.089
 4649SOL    HW224627   9.004   8.388   1.963
 4650SOL     OW24628   8.826   1.726   0.053
 4650SOL    HW124629   8.783   1.639   0.075
 4650SOL    HW224630   8.879   1.758   0.132
 4651SOL     OW24631   0.649   4.635   0.147
 4651SOL    HW124632   0.655   4.731   0.176
 4651SOL    HW224633   0.741   4.601   0.129
 4652SOL     OW24634   0.426   2.314   3.719
 4652SOL    HW124635   0.349   2.375   3.739
 4652SOL    HW224636   0.438   2.249   3.794
 4653SOL     OW24637   1.981   4.301   0.477
 4653SOL    HW124638   1.934   4.254   0.402
 4653SOL    HW224639   2.079   4.283   0.471
 4654SOL     OW24640   0.703   9.641   0.637
 4654SOL    HW124641   0.668   9.576   0.570
 4654SOL    HW224642   0.627   9.693   0.676
 4655SOL     OW24643   6.714   9.870   3.425
 4655SOL    HW124644   6.793   9.930   3.436
 4655SOL    HW224645   6.740   9.777   3.454
 4656SOL     OW24646   9.074   7.352   3.102
 4656SOL    HW124647   8.987   7.365   3.054
 4656SOL    HW224648   9.149   7.365   3.037
 4657SOL     OW24649   8.300   0.034   1.917
 4657SOL    HW124650   8.340   9.959   1.865
 4657SOL    HW224651   8.202   0.020   1.926
 4658SOL     OW24652   1.179   9.285   4.339
 4658SOL    HW124653   1.159   9.308   4.244
 4658SOL    HW224654   1.182   9.369   4.394
 4659SOL     OW24655   9.130   2.205   2.682
 4659SOL    HW124656   9.115   2.298   2.650
 4659SOL    HW224657   9.046   2.152   2.671
 4660SOL     OW24658   8.303   1.229   2.229
 4660SOL    HW124659   8.392   1.257   2.193
 4660SOL    HW224660   8.286   1.133   2.203
 4661SOL     OW24661   9.533   4.343   1.838
 4661SOL    HW124662   9.620   4.386   1.812
 4661SOL    HW224663   9.551   4.263   1.896
 4662SOL     OW24664   3.127   5.244   4.041
 4662SOL    HW124665   3.028   5.259   4.040
 4662SOL    HW224666   3.171   5.318   4.093
 4663SOL     OW24667   8.571   5.320   3.533
 4663SOL    HW124668   8.567   5.227   3.568
 4663SOL    HW224669   8.479   5.351   3.508
 4664SOL     OW24670   9.238   7.397   2.576
 4664SOL    HW124671   9.233   7.493   2.602
 4664SOL    HW224672   9.145   7.359   2.572
 4665SOL     OW24673   0.056   3.933   3.744
 4665SOL    HW124674   0.006   3.894   3.821
 4665SOL    HW224675   0.059   4.032   3.753
 4666SOL     OW24676   5.864   7.656   2.030
 4666SOL    HW124677   5.882   7.607   1.946
 4666SOL    HW224678   5.923   7.737   2.035
 4667SOL     OW24679   0.581   8.933   1.600
 4667SOL    HW124680   0.636   8.866   1.650
 4667SOL    HW224681   0.505   8.887   1.554
 4668SOL     OW24682   0.105   6.318   1.291
 4668SOL    HW124683   0.017   6.345   1.329
 4668SOL    HW224684   0.164   6.286   1.365
 4669SOL     OW24685   2.944   5.501   0.980
 4669SOL    HW124686   2.862   5.465   0.934
 4669SOL    HW224687   2.926   5.507   1.079
 4670SOL     OW24688   9.068   8.038   1.791
 4670SOL    HW124689   9.155   8.086   1.776
 4670SOL    HW224690   9.086   7.941   1.808
 4671SOL     OW24691   9.611   9.063   4.248
 4671SOL    HW124692   9.694   9.103   4.286
 4671SOL    HW224693   9.571   9.000   4.314
 4672SOL     OW24694   4.041   4.207   0.009
 4672SOL    HW124695   4.138   4.188   0.025
 4672SOL    HW224696   3.992   4.208   0.096
 4673SOL     OW24697   4.899   3.662   2.633
 4673SOL    HW124698   4.851   3.627   2.553
 4673SOL    HW224699   4.976   3.719   2.604
 4674SOL     OW24700   4.737   0.411   0.201
 4674SOL    HW124701   4.807   0.477   0.174
 4674SOL    HW224702   4.768   0.318   0.179
 4675SOL     OW24703   3.489   1.842   0.968
 4675SOL    HW124704   3.508   1.842   1.066
 4675SOL    HW224705   3.417   1.776   0.947
 4676SOL     OW24706   4.775   9.617   2.187
 4676SOL    HW124707   4.820   9.706   2.197
 4676SOL    HW224708   4.816   9.552   2.251
 4677SOL     OW24709   7.347   9.733   0.443
 4677SOL    HW124710   7.394   9.647   0.462
 4677SOL    HW224711   7.407   9.793   0.389
 4678SOL     OW24712   9.925   5.222   1.273
 4678SOL    HW124713   9.937   5.122   1.270
 4678SOL    HW224714   9.860   5.245   1.345
 4679SOL     OW24715   3.616   1.567   0.563
 4679SOL    HW124716   3.630   1.606   0.654
 4679SOL    HW224717   3.655   1.628   0.494
 4680SOL     OW24718   4.539   3.069   2.065
 4680SOL    HW124719   4.568   3.012   1.987
 4680SOL    HW224720   4.452   3.113   2.043
 4681SOL     OW24721   4.926   8.165   2.646
 4681SOL    HW124722   4.990   8.097   2.682
 4681SOL    HW224723   4.832   8.135   2.662
 4682SOL     OW24724   9.283   5.343   1.570
 4682SOL    HW124725   9.343   5.270   1.604
 4682SOL    HW224726   9.219   5.304   1.504
 4683SOL     OW24727   3.883   8.218   0.197
 4683SOL    HW124728   3.961   8.190   0.140
 4683SOL    HW224729   3.802   8.165   0.171
 4684SOL     OW24730   9.458   6.732   3.051
 4684SOL    HW124731   9.419   6.775   2.970
 4684SOL    HW224732   9.413   6.644   3.067
 4685SOL     OW24733   6.776   0.710   0.530
 4685SOL    HW124734   6.774   0.791   0.472
 4685SOL    HW224735   6.826   0.637   0.483
 4686SOL     OW24736   3.948   8.235   1.685
 4686SOL    HW124737   4.018   8.172   1.720
 4686SOL    HW224738   3.865   8.227   1.739
 4687SOL     OW24739   8.640   2.633   1.866
 4687SOL    HW124740   8.717   2.682   1.906
 4687SOL    HW224741   8.603   2.569   1.934
 4688SOL     OW24742   8.610   3.360   1.344
 4688SOL    HW124743   8.565   3.405   1.421
 4688SOL    HW224744   8.647   3.272   1.375
 4689SOL     OW24745   6.545   0.228   3.067
 4689SOL    HW124746   6.523   0.324   3.052
 4689SOL    HW224747   6.465   0.180   3.104
 4690SOL     OW24748   0.842   8.106   1.996
 4690SOL    HW124749   0.780   8.041   2.039
 4690SOL    HW224750   0.912   8.133   2.062
 4691SOL     OW24751   1.618   2.259   2.808
 4691SOL    HW124752   1.666   2.343   2.785
 4691SOL    HW224753   1.637   2.234   2.903
 4692SOL     OW24754   1.466   2.219   3.180
 4692SOL    HW124755   1.554   2.217   3.132
 4692SOL    HW224756   1.392   2.227   3.113
 4693SOL     OW24757   8.955   9.029   2.149
 4693SOL    HW124758   8.928   9.122   2.122
 4693SOL    HW224759   9.050   9.030   2.179
 4694SOL     OW24760   3.989   3.083   3.241
 4694SOL    HW124761   3.948   3.126   3.160
 4694SOL    HW224762   3.916   3.053   3.302
 4695SOL     OW24763   8.192   9.374   2.178
 4695SOL    HW124764   8.275   9.331   2.215
 4695SOL    HW224765   8.149   9.430   2.249
 4696SOL     OW24766   9.289   0.357   1.146
 4696SOL    HW124767   9.206   0.412   1.158
 4696SOL    HW224768   9.359   0.390   1.209
 4697SOL     OW24769   5.716   0.938   2.507
 4697SOL    HW124770   5.637   0.911   2.562
 4697SOL    HW224771   5.686   0.987   2.426
 4698SOL     OW24772   0.362   9.382   2.962
 4698SOL    HW124773   0.344   9.480   2.957
 4698SOL    HW224774   0.289   9.332   2.915
 4699SOL     OW24775   9.689   4.587   2.558
 4699SOL    HW124776   9.622   4.524   2.597
 4699SOL    HW224777   9.710   4.560   2.464
 4700SOL     OW24778   8.225   8.607   2.722
 4700SOL    HW124779   8.146   8.621   2.780
 4700SOL    HW224780   8.288   8.685   2.732
 4701SOL     OW24781   3.638   4.990   0.150
 4701SOL    HW124782   3.548   5.029   0.169
 4701SOL    HW224783   3.662   5.007   0.055
 4702SOL     OW24784   5.421   3.305   0.410
 4702SOL    HW124785   5.501   3.352   0.448
 4702SOL    HW224786   5.385   3.357   0.333
 4703SOL     OW24787   4.680   3.067   2.713
 4703SOL    HW124788   4.721   2.995   2.769
 4703SOL    HW224789   4.585   3.043   2.693
 4704SOL     OW24790   9.968   0.553   0.120
 4704SOL    HW124791   9.918   0.476   0.160
 4704SOL    HW224792   9.956   0.633   0.179
 4705SOL     OW24793   9.478   3.053   1.102
 4705SOL    HW124794   9.471   3.151   1.083
 4705SOL    HW224795   9.522   3.007   1.024
 4706SOL     OW24796   4.944   9.939   3.825
 4706SOL    HW124797   4.846   9.958   3.829
 4706SOL    HW224798   4.988   0.002   3.762
 4707SOL     OW24799   8.487   3.669   2.723
 4707SOL    HW124800   8.460   3.683   2.818
 4707SOL    HW224801   8.542   3.746   2.692
 4708SOL     OW24802   9.089   7.085   0.698
 4708SOL    HW124803   9.109   7.182   0.686
 4708SOL    HW224804   9.165   7.031   0.664
 4709SOL     OW24805   2.459   6.296   4.248
 4709SOL    HW124806   2.546   6.345   4.246
 4709SOL    HW224807   2.417   6.299   4.157
 4710SOL     OW24808   2.570   7.671   2.027
 4710SOL    HW124809   2.568   7.761   2.070
 4710SOL    HW224810   2.479   7.629   2.036
 4711SOL     OW24811   9.183   7.956   3.266
 4711SOL    HW124812   9.270   7.907   3.264
 4711SOL    HW224813   9.194   8.046   3.225
 4712SOL     OW24814   3.326   8.542   0.940
 4712SOL    HW124815   3.282   8.581   1.022
 4712SOL    HW224816   3.313   8.604   0.863
 4713SOL     OW24817   4.161   3.506   2.073
 4713SOL    HW124818   4.090   3.552   2.020
 4713SOL    HW224819   4.133   3.500   2.169
 4714SOL     OW24820   0.500   3.493   1.226
 4714SOL    HW124821   0.504   3.473   1.128
 4714SOL    HW224822   0.592   3.492   1.264
 4715SOL     OW24823   8.484   1.982   2.403
 4715SOL    HW124824   8.391   2.002   2.373
 4715SOL    HW224825   8.546   1.988   2.325
 4716SOL     OW24826   4.393   0.772   2.445
 4716SOL    HW124827   4.446   0.854   2.423
 4716SOL    HW224828   4.411   0.744   2.539
 4717SOL     OW24829   6.217   0.260   3.701
 4717SOL    HW124830   6.153   0.190   3.733
 4717SOL    HW224831   6.206   0.273   3.602
 4718SOL     OW24832   8.552   2.811   0.913
 4718SOL    HW124833   8.487   2.884   0.935
 4718SOL    HW224834   8.626   2.810   0.981
 4719SOL     OW24835   1.043   6.706   1.538
 4719SOL    HW124836   0.990   6.730   1.457
 4719SOL    HW224837   1.019   6.614   1.568
 4720SOL     OW24838   9.477   5.992   3.594
 4720SOL    HW124839   9.563   5.946   3.614
 4720SOL    HW224840   9.490   6.056   3.518
 4721SOL     OW24841   5.091   7.542   1.674
 4721SOL    HW124842   4.998   7.506   1.674
 4721SOL    HW224843   5.156   7.466   1.674
 4722SOL     OW24844   5.005   0.412   3.445
 4722SOL    HW124845   4.913   0.451   3.436
 4722SOL    HW224846   5.031   0.407   3.541
 4723SOL     OW24847   2.145   8.974   1.961
 4723SOL    HW124848   2.220   9.038   1.946
 4723SOL    HW224849   2.175   8.882   1.938
 4724SOL     OW24850   9.978   1.004   1.028
 4724SOL    HW124851   9.899   0.956   1.065
 4724SOL    HW224852   0.059   0.946   1.037
 4725SOL     OW24853   3.354   1.844   4.387
 4725SOL    HW124854   3.450   1.845   4.359
 4725SOL    HW224855   3.348   1.842   4.487
 4726SOL     OW24856   5.509   0.534   0.552
 4726SOL    HW124857   5.603   0.511   0.526
 4726SOL    HW224858   5.447   0.519   0.475
 4727SOL     OW24859   6.314   0.558   3.267
 4727SOL    HW124860   6.374   0.568   3.346
 4727SOL    HW224861   6.368   0.548   3.184
 4728SOL     OW24862   8.077   1.115   3.747
 4728SOL    HW124863   8.098   1.017   3.741
 4728SOL    HW224864   8.040   1.147   3.660
 4729SOL     OW24865   0.015   3.548   3.480
 4729SOL    HW124866   9.978   3.641   3.483
 4729SOL    HW224867   9.963   3.490   3.542
 4730SOL     OW24868   7.194   9.377   1.168
 4730SOL    HW124869   7.163   9.329   1.250
 4730SOL    HW224870   7.138   9.351   1.090
 4731SOL     OW24871   3.390   1.179   1.375
 4731SOL    HW124872   3.406   1.119   1.297
 4731SOL    HW224873   3.291   1.185   1.393
 4732SOL     OW24874   0.791   7.937   1.775
 4732SOL    HW124875   0.814   8.004   1.845
 4732SOL    HW224876   0.822   7.846   1.803
 4733SOL     OW24877   1.496   3.066   1.613
 4733SOL    HW124878   1.490   3.165   1.610
 4733SOL    HW224879   1.591   3.038   1.627
 4734SOL     OW24880   7.612   6.863   4.222
 4734SOL    HW124881   7.650   6.873   4.314
 4734SOL    HW224882   7.686   6.858   4.155
 4735SOL     OW24883   8.566   7.547   0.047
 4735SOL    HW124884   8.477   7.581   0.078
 4735SOL    HW224885   8.634   7.620   0.057
 4736SOL     OW24886   2.256   3.310   3.702
 4736SOL    HW124887   2.173   3.344   3.746
 4736SOL    HW224888   2.256   3.210   3.703
 4737SOL     OW24889   9.761   1.912   0.656
 4737SOL    HW124890   9.808   1.979   0.599
 4737SOL    HW224891   9.786   1.819   0.627
 4738SOL     OW24892   0.415   6.779   3.037
 4738SOL    HW124893   0.409   6.798   3.135
 4738SOL    HW224894   0.441   6.684   3.023
 4739SOL     OW24895   0.339   3.184   4.434
 4739SOL    HW124896   0.375   3.127   4.507
 4739SOL    HW224897   0.346   3.135   4.347
 4740SOL     OW24898   5.070   2.718   0.261
 4740SOL    HW124899   5.046   2.804   0.217
 4740SOL    HW224900   4.999   2.650   0.244
 4741SOL     OW24901   4.892   2.653   1.537
 4741SOL    HW124902   4.825   2.703   1.481
 4741SOL    HW224903   4.983   2.690   1.521
 4742SOL     OW24904   7.389   6.685   2.926
 4742SOL    HW124905   7.448   6.638   2.860
 4742SOL    HW224906   7.425   6.670   3.018
 4743SOL     OW24907   3.158   5.262   4.378
 4743SOL    HW124908   3.198   5.326   4.313
 4743SOL    HW224909   3.193   5.282   4.470
 4744SOL     OW24910   9.402   7.924   2.532
 4744SOL    HW124911   9.398   7.861   2.611
 4744SOL    HW224912   9.425   8.016   2.565
 4745SOL     OW24913   0.217   2.679   1.109
 4745SOL    HW124914   0.246   2.719   1.196
 4745SOL    HW224915   0.180   2.587   1.125
 4746SOL     OW24916   8.012   9.182   0.642
 4746SOL    HW124917   8.027   9.280   0.630
 4746SOL    HW224918   7.935   9.152   0.585
 4747SOL     OW24919   3.839   9.910   4.321
 4747SOL    HW124920   3.754   9.945   4.360
 4747SOL    HW224921   3.888   9.984   4.275
 4748SOL     OW24922   4.095   9.611   0.592
 4748SOL    HW124923   4.102   9.689   0.529
 4748SOL    HW224924   4.012   9.621   0.648
 4749SOL     OW24925   8.597   8.315   0.930
 4749SOL    HW124926   8.572   8.301   1.026
 4749SOL    HW224927   8.617   8.226   0.887
 4750SOL     OW24928   8.232   3.912   1.954
 4750SOL    HW124929   8.236   3.837   2.019
 4750SOL    HW224930   8.216   3.998   2.004
 4751SOL     OW24931   0.421   5.904   0.811
 4751SOL    HW124932   0.400   5.994   0.849
 4751SOL    HW224933   0.520   5.895   0.799
 4752SOL     OW24934   0.584   9.895   0.223
 4752SOL    HW124935   0.675   9.934   0.239
 4752SOL    HW224936   0.524   9.965   0.183
 4753SOL     OW24937   5.603   9.033   3.982
 4753SOL    HW124938   5.639   9.091   4.055
 4753SOL    HW224939   5.609   9.081   3.895
 4754SOL     OW24940   6.355   9.040   3.148
 4754SOL    HW124941   6.344   8.941   3.136
 4754SOL    HW224942   6.451   9.061   3.163
 4755SOL     OW24943   0.041   0.505   1.542
 4755SOL    HW124944   0.068   0.598   1.519
 4755SOL    HW224945   0.084   0.478   1.628
 4756SOL     OW24946   0.875   8.941   3.632
 4756SOL    HW124947   0.964   8.986   3.643
 4756SOL    HW224948   0.810   8.981   3.696
 4757SOL     OW24949   7.319   8.854   3.693
 4757SOL    HW124950   7.344   8.781   3.757
 4757SOL    HW224951   7.383   8.930   3.702
 4758SOL     OW24952   6.367   6.979   3.529
 4758SOL    HW124953   6.435   6.944   3.465
 4758SOL    HW224954   6.275   6.959   3.495
 4759SOL     OW24955   2.506   3.757   1.904
 4759SOL    HW124956   2.462   3.845   1.889
 4759SOL    HW224957   2.521   3.744   2.002
 4760SOL     OW24958   0.454   7.026   0.189
 4760SOL    HW124959   0.385   6.954   0.196
 4760SOL    HW224960   0.410   7.115   0.199
 4761SOL     OW24961   6.879   1.590   3.817
 4761SOL    HW124962   6.951   1.660   3.810
 4761SOL    HW224963   6.839   1.574   3.727
 4762SOL     OW24964   8.758   4.501   1.224
 4762SOL    HW124965   8.843   4.521   1.273
 4762SOL    HW224966   8.714   4.587   1.198
 4763SOL     OW24967   1.239   8.983   1.111
 4763SOL    HW124968   1.264   8.887   1.125
 4763SOL    HW224969   1.292   9.020   1.035
 4764SOL     OW24970   0.570   0.435   2.371
 4764SOL    HW124971   0.637   0.504   2.399
 4764SOL    HW224972   0.552   0.445   2.274
 4765SOL     OW24973   4.496   6.373   1.062
 4765SOL    HW124974   4.570   6.404   1.121
 4765SOL    HW224975   4.421   6.339   1.118
 4766SOL     OW24976   3.023   6.504   0.830
 4766SOL    HW124977   3.000   6.450   0.911
 4766SOL    HW224978   2.958   6.485   0.757
 4767SOL     OW24979   2.876   8.139   3.399
 4767SOL    HW124980   2.790   8.191   3.397
 4767SOL    HW224981   2.875   8.071   3.326
 4768SOL     OW24982   1.769   1.899   2.880
 4768SOL    HW124983   1.826   1.981   2.883
 4768SOL    HW224984   1.677   1.923   2.852
 4769SOL     OW24985   0.722   3.259   0.161
 4769SOL    HW124986   0.771   3.306   0.235
 4769SOL    HW224987   0.742   3.161   0.164
 4770SOL     OW24988   5.848   0.117   1.992
 4770SOL    HW124989   5.867   0.203   1.945
 4770SOL    HW224990   5.805   0.136   2.080
 4771SOL     OW24991   3.719   5.333   2.263
 4771SOL    HW124992   3.766   5.261   2.315
 4771SOL    HW224993   3.748   5.423   2.296
 4772SOL     OW24994   7.192   1.264   2.990
 4772SOL    HW124995   7.175   1.273   2.892
 4772SOL    HW224996   7.188   1.167   3.016
 4773SOL     OW24997   3.442   3.947   0.082
 4773SOL    HW124998   3.417   3.995   0.166
 4773SOL    HW224999   3.496   4.009   0.024
 4774SOL     OW25000   2.568   7.370   1.799
 4774SOL    HW125001   2.524   7.437   1.739
 4774SOL    HW225002   2.638   7.416   1.854
 4775SOL     OW25003   3.713   8.209   1.815
 4775SOL    HW125004   3.690   8.268   1.893
 4775SOL    HW225005   3.649   8.132   1.812
 4776SOL     OW25006   3.644   4.266   3.611
 4776SOL    HW125007   3.699   4.314   3.680
 4776SOL    HW225008   3.642   4.168   3.634
 4777SOL     OW25009   3.584   7.396   2.310
 4777SOL    HW125010   3.586   7.302   2.346
 4777SOL    HW225011   3.496   7.411   2.264
 4778SOL     OW25012   7.451   7.426   3.201
 4778SOL    HW125013   7.360   7.462   3.181
 4778SOL    HW225014   7.469   7.347   3.144
 4779SOL     OW25015   3.215   2.078   3.082
 4779SOL    HW125016   3.264   2.164   3.070
 4779SOL    HW225017   3.277   2.009   3.119
 4780SOL     OW25018   4.122   2.149   4.330
 4780SOL    HW125019   4.105   2.165   4.427
 4780SOL    HW225020   4.190   2.077   4.319
 4781SOL     OW25021   7.315   9.358   4.156
 4781SOL    HW125022   7.313   9.261   4.177
 4781SOL    HW225023   7.225   9.399   4.174
 4782SOL     OW25024   4.863   1.476   3.224
 4782SOL    HW125025   4.916   1.531   3.289
 4782SOL    HW225026   4.848   1.529   3.140
 4783SOL     OW25027   3.162   9.564   1.294
 4783SOL    HW125028   3.259   9.571   1.271
 4783SOL    HW225029   3.107   9.612   1.226
 4784SOL     OW25030   2.459   3.560   1.335
 4784SOL    HW125031   2.441   3.530   1.428
 4784SOL    HW225032   2.446   3.483   1.272
 4785SOL     OW25033   6.281   8.107   2.885
 4785SOL    HW125034   6.269   8.017   2.928
 4785SOL    HW225035   6.372   8.111   2.844
 4786SOL     OW25036   6.464   8.132   2.135
 4786SOL    HW125037   6.530   8.105   2.206
 4786SOL    HW225038   6.513   8.155   2.051
 4787SOL     OW25039   2.842   9.383   2.300
 4787SOL    HW125040   2.825   9.297   2.349
 4787SOL    HW225041   2.757   9.434   2.290
 4788SOL     OW25042   8.502   0.423   2.147
 4788SOL    HW125043   8.502   0.439   2.246
 4788SOL    HW225044   8.453   0.338   2.128
 4789SOL     OW25045   9.060   3.974   2.823
 4789SOL    HW125046   8.987   4.037   2.796
 4789SOL    HW225047   9.140   3.990   2.764
 4790SOL     OW25048   8.569   5.438   4.213
 4790SOL    HW125049   8.504   5.373   4.173
 4790SOL    HW225050   8.519   5.512   4.257
 4791SOL     OW25051   2.944   2.696   3.856
 4791SOL    HW125052   2.860   2.665   3.812
 4791SOL    HW225053   2.957   2.646   3.942
 4792SOL     OW25054   5.631   9.806   2.719
 4792SOL    HW125055   5.676   9.719   2.702
 4792SOL    HW225056   5.635   9.827   2.817
 4793SOL     OW25057   8.286   9.729   0.715
 4793SOL    HW125058   8.346   9.774   0.782
 4793SOL    HW225059   8.191   9.749   0.736
 4794SOL     OW25060   3.160   4.093   2.505
 4794SOL    HW125061   3.150   4.101   2.405
 4794SOL    HW225062   3.092   4.029   2.540
 4795SOL     OW25063   6.641   0.571   0.900
 4795SOL    HW125064   6.675   0.495   0.844
 4795SOL    HW225065   6.587   0.535   0.976
 4796SOL     OW25066   0.545   0.955   1.538
 4796SOL    HW125067   0.455   0.987   1.510
 4796SOL    HW225068   0.600   0.934   1.457
 4797SOL     OW25069   9.005   7.753   3.199
 4797SOL    HW125070   9.030   7.671   3.251
 4797SOL    HW225071   9.070   7.827   3.219
 4798SOL     OW25072   9.549   1.202   3.431
 4798SOL    HW125073   9.586   1.214   3.523
 4798SOL    HW225074   9.491   1.120   3.430
 4799SOL     OW25075   2.219   9.544   2.174
 4799SOL    HW125076   2.304   9.576   2.131
 4799SOL    HW225077   2.144   9.547   2.108
 4800SOL     OW25078   1.981   5.456   1.606
 4800SOL    HW125079   2.031   5.370   1.618
 4800SOL    HW225080   2.015   5.504   1.525
 4801SOL     OW25081   5.279   6.630   2.527
 4801SOL    HW125082   5.201   6.635   2.588
 4801SOL    HW225083   5.316   6.722   2.511
 4802SOL     OW25084   2.270   0.564   2.998
 4802SOL    HW125085   2.367   0.537   2.997
 4802SOL    HW225086   2.262   0.658   3.031
 4803SOL     OW25087   4.743   4.043   1.835
 4803SOL    HW125088   4.655   3.997   1.836
 4803SOL    HW225089   4.817   3.976   1.831
 4804SOL     OW25090   3.274   1.912   2.735
 4804SOL    HW125091   3.187   1.940   2.777
 4804SOL    HW225092   3.263   1.910   2.636
 4805SOL     OW25093   3.756   6.482   3.592
 4805SOL    HW125094   3.688   6.523   3.532
 4805SOL    HW225095   3.731   6.499   3.687
 4806SOL     OW25096   0.464   3.116   2.095
 4806SOL    HW125097   0.381   3.099   2.043
 4806SOL    HW225098   0.542   3.125   2.032
 4807SOL     OW25099   4.438   8.371   1.218
 4807SOL    HW125100   4.364   8.310   1.245
 4807SOL    HW225101   4.453   8.364   1.119
 4808SOL     OW25102   5.523   0.883   3.915
 4808SOL    HW125103   5.500   0.962   3.858
 4808SOL    HW225104   5.584   0.912   3.989
 4809SOL     OW25105   9.696   2.058   3.925
 4809SOL    HW125106   9.671   2.134   3.984
 4809SOL    HW225107   9.616   1.999   3.910
 4810SOL     OW25108   3.061   9.446   4.307
 4810SOL    HW125109   3.063   9.505   4.387
 4810SOL    HW225110   3.078   9.351   4.335
 4811SOL     OW25111   3.556   7.343   0.793
 4811SOL    HW125112   3.574   7.256   0.747
 4811SOL    HW225113   3.625   7.410   0.767
 4812SOL     OW25114   1.391   9.724   2.646
 4812SOL    HW125115   1.396   9.822   2.626
 4812SOL    HW225116   1.307   9.686   2.607
 4813SOL     OW25117   9.008   0.819   3.895
 4813SOL    HW125118   8.923   0.771   3.873
 4813SOL    HW225119   9.050   0.778   3.976
 4814SOL     OW25120   4.436   7.545   2.512
 4814SOL    HW125121   4.354   7.514   2.561
 4814SOL    HW225122   4.508   7.566   2.578
 4815SOL     OW25123   9.750   6.540   3.977
 4815SOL    HW125124   9.651   6.546   3.989
 4815SOL    HW225125   9.787   6.629   3.953
 4816SOL     OW25126   7.789   3.300   0.178
 4816SOL    HW125127   7.764   3.387   0.221
 4816SOL    HW225128   7.886   3.282   0.194
 4817SOL     OW25129   4.328   7.025   3.250
 4817SOL    HW125130   4.295   6.976   3.331
 4817SOL    HW225131   4.416   6.987   3.222
 4818SOL     OW25132   2.767   0.294   4.227
 4818SOL    HW125133   2.768   0.349   4.310
 4818SOL    HW225134   2.708   0.338   4.159
 4819SOL     OW25135   1.538   7.873   0.279
 4819SOL    HW125136   1.472   7.860   0.206
 4819SOL    HW225137   1.581   7.963   0.269
 4820SOL     OW25138   3.183   3.065   0.711
 4820SOL    HW125139   3.196   3.122   0.792
 4820SOL    HW225140   3.112   2.997   0.730
 4821SOL     OW25141   8.507   4.562   2.585
 4821SOL    HW125142   8.598   4.599   2.565
 4821SOL    HW225143   8.465   4.616   2.659
 4822SOL     OW25144   3.812   6.935   1.805
 4822SOL    HW125145   3.850   6.930   1.713
 4822SOL    HW225146   3.779   6.845   1.832
 4823SOL     OW25147   5.892   7.186   2.045
 4823SOL    HW125148   5.871   7.104   2.098
 4823SOL    HW225149   5.807   7.230   2.017
 4824SOL     OW25150   4.931   7.288   2.640
 4824SOL    HW125151   4.900   7.312   2.548
 4824SOL    HW225152   4.972   7.368   2.684
 4825SOL     OW25153   3.842   1.750   1.207
 4825SOL    HW125154   3.923   1.720   1.157
 4825SOL    HW225155   3.791   1.816   1.152
 4826SOL     OW25156   7.197   2.294   2.975
 4826SOL    HW125157   7.264   2.339   2.916
 4826SOL    HW225158   7.156   2.218   2.925
 4827SOL     OW25159   4.809   4.096   1.160
 4827SOL    HW125160   4.849   4.144   1.082
 4827SOL    HW225161   4.863   4.014   1.181
 4828SOL     OW25162   3.434   9.572   1.233
 4828SOL    HW125163   3.496   9.508   1.187
 4828SOL    HW225164   3.401   9.640   1.167
 4829SOL     OW25165   8.320   2.034   1.263
 4829SOL    HW125166   8.270   1.998   1.342
 4829SOL    HW225167   8.258   2.038   1.184
 4830SOL     OW25168   8.012   5.901   4.088
 4830SOL    HW125169   8.036   5.926   3.994
 4830SOL    HW225170   8.078   5.835   4.123
 4831SOL     OW25171   0.687   5.396   4.238
 4831SOL    HW125172   0.607   5.447   4.205
 4831SOL    HW225173   0.658   5.313   4.284
 4832SOL     OW25174   8.459   3.503   1.165
 4832SOL    HW125175   8.511   3.439   1.221
 4832SOL    HW225176   8.484   3.597   1.190
 4833SOL     OW25177   8.436   8.879   1.831
 4833SOL    HW125178   8.511   8.940   1.808
 4833SOL    HW225179   8.401   8.902   1.922
 4834SOL     OW25180   8.242   4.344   4.384
 4834SOL    HW125181   8.224   4.394   4.468
 4834SOL    HW225182   8.291   4.402   4.319
 4835SOL     OW25183   4.267   3.073   3.586
 4835SOL    HW125184   4.286   3.075   3.684
 4835SOL    HW225185   4.353   3.080   3.536
 4836SOL     OW25186   1.453   8.538   3.546
 4836SOL    HW125187   1.452   8.592   3.630
 4836SOL    HW225188   1.395   8.582   3.478
 4837SOL     OW25189   0.009   3.592   2.736
 4837SOL    HW125190   9.949   3.579   2.815
 4837SOL    HW225191   0.023   3.505   2.690
 4838SOL     OW25192   8.317   7.622   0.155
 4838SOL    HW125193   8.269   7.534   0.153
 4838SOL    HW225194   8.256   7.694   0.120
 4839SOL     OW25195   3.679   2.076   0.606
 4839SOL    HW125196   3.667   2.153   0.669
 4839SOL    HW225197   3.598   2.069   0.547
 4840SOL     OW25198   4.933   7.033   3.432
 4840SOL    HW125199   4.979   7.120   3.414
 4840SOL    HW225200   4.996   6.972   3.481
 4841SOL     OW25201   1.676   6.502   1.069
 4841SOL    HW125202   1.739   6.574   1.040
 4841SOL    HW225203   1.668   6.503   1.169
 4842SOL     OW25204   4.891   1.128   1.332
 4842SOL    HW125205   4.797   1.135   1.299
 4842SOL    HW225206   4.895   1.062   1.407
 4843SOL     OW25207   2.577   6.455   0.984
 4843SOL    HW125208   2.643   6.446   1.058
 4843SOL    HW225209   2.596   6.386   0.913
 4844SOL     OW25210   3.345   2.128   2.019
 4844SOL    HW125211   3.296   2.076   1.949
 4844SOL    HW225212   3.297   2.214   2.036
 4845SOL     OW25213   9.997   1.741   1.237
 4845SOL    HW125214   9.994   1.649   1.276
 4845SOL    HW225215   9.920   1.794   1.270
 4846SOL     OW25216   0.560   4.907   0.758
 4846SOL    HW125217   0.552   4.900   0.857
 4846SOL    HW225218   0.500   4.980   0.725
 4847SOL     OW25219   9.562   9.744   0.122
 4847SOL    HW125220   9.470   9.760   0.157
 4847SOL    HW225221   9.563   9.658   0.070
 4848SOL     OW25222   9.250   8.807   1.369
 4848SOL    HW125223   9.232   8.713   1.397
 4848SOL    HW225224   9.178   8.867   1.406
 4849SOL     OW25225   4.062   6.694   1.536
 4849SOL    HW125226   4.118   6.680   1.618
 4849SOL    HW225227   4.029   6.605   1.504
 4850SOL     OW25228   1.871   7.237   1.316
 4850SOL    HW125229   1.920   7.182   1.383
 4850SOL    HW225230   1.830   7.176   1.247
 4851SOL     OW25231   0.592   4.025   3.277
 4851SOL    HW125232   0.542   4.028   3.191
 4851SOL    HW225233   0.531   4.050   3.352
 4852SOL     OW25234   7.135   0.930   0.540
 4852SOL    HW125235   7.094   0.969   0.458
 4852SOL    HW225236   7.230   0.905   0.521
 4853SOL     OW25237   7.645   9.469   2.779
 4853SOL    HW125238   7.666   9.491   2.874
 4853SOL    HW225239   7.585   9.388   2.776
 4854SOL     OW25240   9.606   2.764   4.052
 4854SOL    HW125241   9.615   2.672   4.015
 4854SOL    HW225242   9.509   2.789   4.056
 4855SOL     OW25243   2.906   1.163   1.908
 4855SOL    HW125244   2.883   1.144   2.004
 4855SOL    HW225245   2.942   1.080   1.866
 4856SOL     OW25246   7.259   7.280   1.737
 4856SOL    HW125247   7.285   7.341   1.663
 4856SOL    HW225248   7.308   7.194   1.728
 4857SOL     OW25249   3.293   5.364   1.055
 4857SOL    HW125250   3.246   5.332   0.972
 4857SOL    HW225251   3.227   5.368   1.130
 4858SOL     OW25252   5.154   9.651   0.922
 4858SOL    HW125253   5.100   9.582   0.971
 4858SOL    HW225254   5.194   9.714   0.988
 4859SOL     OW25255   5.318   7.450   2.868
 4859SOL    HW125256   5.383   7.488   2.803
 4859SOL    HW225257   5.228   7.441   2.825
 4860SOL     OW25258   1.202   4.535   0.933
 4860SOL    HW125259   1.232   4.574   1.021
 4860SOL    HW225260   1.143   4.601   0.886
 4861SOL     OW25261   0.754   2.271   3.872
 4861SOL    HW125262   0.804   2.247   3.956
 4861SOL    HW225263   0.697   2.351   3.890
 4862SOL     OW25264   1.443   1.113   0.590
 4862SOL    HW125265   1.365   1.165   0.625
 4862SOL    HW225266   1.498   1.172   0.530
 4863SOL     OW25267   9.305   2.843   0.818
 4863SOL    HW125268   9.207   2.831   0.835
 4863SOL    HW225269   9.351   2.755   0.828
 4864SOL     OW25270   3.538   8.948   1.739
 4864SOL    HW125271   3.493   8.943   1.649
 4864SOL    HW225272   3.564   8.856   1.768
 4865SOL     OW25273   5.316   0.857   1.021
 4865SOL    HW125274   5.352   0.776   0.974
 4865SOL    HW225275   5.281   0.921   0.952
 4866SOL     OW25276   8.544   3.463   3.334
 4866SOL    HW125277   8.624   3.426   3.382
 4866SOL    HW225278   8.526   3.556   3.367
 4867SOL     OW25279   8.628   3.760   0.843
 4867SOL    HW125280   8.540   3.722   0.815
 4867SOL    HW225281   8.614   3.847   0.890
 4868SOL     OW25282   8.319   1.025   4.332
 4868SOL    HW125283   8.409   0.982   4.325
 4868SOL    HW225284   8.249   0.955   4.342
 4869SOL     OW25285   4.367   3.118   1.769
 4869SOL    HW125286   4.376   3.213   1.797
 4869SOL    HW225287   4.450   3.089   1.721
 4870SOL     OW25288   9.818   3.200   1.285
 4870SOL    HW125289   9.906   3.193   1.330
 4870SOL    HW225290   9.832   3.218   1.187
 4871SOL     OW25291   5.103   0.301   0.304
 4871SOL    HW125292   5.120   0.275   0.399
 4871SOL    HW225293   5.023   0.251   0.269
 4872SOL     OW25294   7.077   7.257   3.669
 4872SOL    HW125295   7.056   7.229   3.763
 4872SOL    HW225296   7.175   7.241   3.651
 4873SOL     OW25297   3.826   1.033   4.129
 4873SOL    HW125298   3.903   0.980   4.165
 4873SOL    HW225299   3.855   1.127   4.114
 4874SOL     OW25300   1.991   1.653   1.248
 4874SOL    HW125301   1.929   1.720   1.288
 4874SOL    HW225302   2.084   1.669   1.280
 4875SOL     OW25303   2.165   8.687   3.857
 4875SOL    HW125304   2.255   8.645   3.848
 4875SOL    HW225305   2.134   8.718   3.768
 4876SOL     OW25306   4.042   0.886   4.218
 4876SOL    HW125307   4.094   0.969   4.234
 4876SOL    HW225308   4.104   0.811   4.195
 4877SOL     OW25309   3.835   0.708   0.606
 4877SOL    HW125310   3.933   0.723   0.599
 4877SOL    HW225311   3.794   0.717   0.515
 4878SOL     OW25312   9.990   5.280   0.729
 4878SOL    HW125313   9.970   5.275   0.826
 4878SOL    HW225314   9.962   5.196   0.684
 4879SOL     OW25315   3.668   9.989   3.095
 4879SOL    HW125316   3.656   9.912   3.033
 4879SOL    HW225317   3.665   0.075   3.043
 4880SOL     OW25318   8.214   7.960   2.746
 4880SOL    HW125319   8.232   8.024   2.671
 4880SOL    HW225320   8.174   7.876   2.709
 4881SOL     OW25321   7.560   0.776   0.290
 4881SOL    HW125322   7.500   0.804   0.366
 4881SOL    HW225323   7.558   0.677   0.282
 4882SOL     OW25324   9.526   4.782   1.955
 4882SOL    HW125325   9.473   4.708   1.915
 4882SOL    HW225326   9.557   4.756   2.046
 4883SOL     OW25327   1.296   1.687   0.524
 4883SOL    HW125328   1.380   1.708   0.474
 4883SOL    HW225329   1.224   1.752   0.497
 4884SOL     OW25330   3.174   0.285   4.166
 4884SOL    HW125331   3.131   0.354   4.224
 4884SOL    HW225332   3.171   0.315   4.070
 4885SOL     OW25333   8.731   5.286   1.216
 4885SOL    HW125334   8.798   5.245   1.155
 4885SOL    HW225335   8.779   5.330   1.293
 4886SOL     OW25336   4.836   0.583   2.475
 4886SOL    HW125337   4.752   0.548   2.517
 4886SOL    HW225338   4.873   0.657   2.532
 4887SOL     OW25339   7.695   0.789   2.614
 4887SOL    HW125340   7.688   0.770   2.712
 4887SOL    HW225341   7.789   0.815   2.592
 4888SOL     OW25342   4.657   2.125   2.829
 4888SOL    HW125343   4.691   2.058   2.895
 4888SOL    HW225344   4.615   2.201   2.878
 4889SOL     OW25345   2.685   1.621   1.481
 4889SOL    HW125346   2.676   1.719   1.465
 4889SOL    HW225347   2.605   1.588   1.531
 4890SOL     OW25348   1.068   7.347   0.109
 4890SOL    HW125349   1.102   7.437   0.134
 4890SOL    HW225350   1.039   7.348   0.013
 4891SOL     OW25351   8.981   8.846   0.830
 4891SOL    HW125352   9.075   8.878   0.827
 4891SOL    HW225353   8.976   8.755   0.790
 4892SOL     OW25354   8.073   1.282   2.084
 4892SOL    HW125355   8.073   1.200   2.026
 4892SOL    HW225356   8.154   1.280   2.143
 4893SOL     OW25357   8.307   9.951   2.826
 4893SOL    HW125358   8.329   0.047   2.807
 4893SOL    HW225359   8.280   9.941   2.922
 4894SOL     OW25360   7.842   0.826   2.004
 4894SOL    HW125361   7.925   0.795   1.958
 4894SOL    HW225362   7.807   0.907   1.959
 4895SOL     OW25363   0.525   3.839   4.239
 4895SOL    HW125364   0.449   3.891   4.200
 4895SOL    HW225365   0.510   3.741   4.224
 4896SOL     OW25366   1.716   0.928   0.223
 4896SOL    HW125367   1.630   0.877   0.216
 4896SOL    HW225368   1.793   0.864   0.223
 4897SOL     OW25369   1.938   8.251   2.017
 4897SOL    HW125370   2.006   8.181   2.039
 4897SOL    HW225371   1.848   8.222   2.049
 4898SOL     OW25372   7.832   2.052   1.339
 4898SOL    HW125373   7.801   1.957   1.336
 4898SOL    HW225374   7.772   2.105   1.399
 4899SOL     OW25375   7.263   1.034   2.170
 4899SOL    HW125376   7.253   1.121   2.219
 4899SOL    HW225377   7.360   1.016   2.155
 4900SOL     OW25378   0.866   8.844   3.381
 4900SOL    HW125379   0.907   8.916   3.325
 4900SOL    HW225380   0.864   8.874   3.477
 4901SOL     OW25381   9.905   3.637   0.069
 4901SOL    HW125382   9.884   3.630   5.605
 4901SOL    HW225383   9.910   3.734   0.095
 4902SOL     OW25384   8.075   9.442   0.622
 4902SOL    HW125385   8.096   9.480   0.532
 4902SOL    HW225386   8.026   9.510   0.676
 4903SOL     OW25387   8.464   6.444   2.514
 4903SOL    HW125388   8.439   6.530   2.559
 4903SOL    HW225389   8.546   6.407   2.557
 4904SOL     OW25390   7.344   7.887   4.216
 4904SOL    HW125391   7.426   7.840   4.248
 4904SOL    HW225392   7.263   7.840   4.250
 4905SOL     OW25393   2.109   1.274   4.389
 4905SOL    HW125394   2.018   1.238   4.368
 4905SOL    HW225395   2.103   1.334   4.469
 4906SOL     OW25396   3.804   7.376   3.230
 4906SOL    HW125397   3.873   7.436   3.270
 4906SOL    HW225398   3.847   7.291   3.199
 4907SOL     OW25399   4.116   4.408   4.222
 4907SOL    HW125400   4.114   4.404   4.122
 4907SOL    HW225401   4.044   4.469   4.255
 4908SOL     OW25402   8.420   9.795   2.630
 4908SOL    HW125403   8.390   9.849   2.708
 4908SOL    HW225404   8.360   9.813   2.552
 4909SOL     OW25405   1.118   9.973   4.401
 4909SOL    HW125406   1.106   9.882   4.361
 4909SOL    HW225407   1.028   0.012   4.422
 4910SOL     OW25408   1.242   7.897   3.648
 4910SOL    HW125409   1.320   7.960   3.655
 4910SOL    HW225410   1.184   7.926   3.572
 4911SOL     OW25411   0.496   6.206   1.921
 4911SOL    HW125412   0.593   6.225   1.909
 4911SOL    HW225413   0.471   6.218   2.017
 4912SOL     OW25414   3.723   2.509   4.355
 4912SOL    HW125415   3.702   2.454   4.274
 4912SOL    HW225416   3.698   2.458   4.437
 4913SOL     OW25417   3.112   9.433   0.627
 4913SOL    HW125418   3.201   9.389   0.640
 4913SOL    HW225419   3.101   9.459   0.531
 4914SOL     OW25420   0.379   2.434   2.976
 4914SOL    HW125421   0.439   2.483   2.913
 4914SOL    HW225422   0.434   2.386   3.043
 4915SOL     OW25423   0.838   1.431   3.128
 4915SOL    HW125424   0.925   1.406   3.086
 4915SOL    HW225425   0.764   1.417   3.062
 4916SOL     OW25426   7.991   1.133   2.576
 4916SOL    HW125427   8.077   1.165   2.537
 4916SOL    HW225428   7.969   1.188   2.656
 4917SOL     OW25429   7.932   5.028   0.296
 4917SOL    HW125430   7.912   5.125   0.287
 4917SOL    HW225431   7.962   5.009   0.390
 4918SOL     OW25432   8.192   2.028   3.545
 4918SOL    HW125433   8.248   2.026   3.462
 4918SOL    HW225434   8.212   2.111   3.597
 4919SOL     OW25435   9.122   6.333   0.848
 4919SOL    HW125436   9.204   6.292   0.889
 4919SOL    HW225437   9.052   6.263   0.838
 4920SOL     OW25438   1.019   7.010   2.780
 4920SOL    HW125439   0.932   7.051   2.751
 4920SOL    HW225440   1.002   6.946   2.855
 4921SOL     OW25441   4.508   0.320   1.999
 4921SOL    HW125442   4.592   0.373   1.985
 4921SOL    HW225443   4.428   0.378   1.983
 4922SOL     OW25444   0.421   5.187   1.412
 4922SOL    HW125445   0.492   5.218   1.348
 4922SOL    HW225446   0.331   5.214   1.378
 4923SOL     OW25447   3.506   0.532   4.296
 4923SOL    HW125448   3.590   0.584   4.283
 4923SOL    HW225449   3.432   0.594   4.320
 4924SOL     OW25450   1.540   1.299   2.418
 4924SOL    HW125451   1.607   1.329   2.486
 4924SOL    HW225452   1.561   1.343   2.330
 4925SOL     OW25453   3.333   3.001   1.968
 4925SOL    HW125454   3.425   3.011   1.932
 4925SOL    HW225455   3.292   2.916   1.935
 4926SOL     OW25456   7.982   2.108   2.379
 4926SOL    HW125457   7.979   2.208   2.377
 4926SOL    HW225458   7.936   2.071   2.299
 4927SOL     OW25459   8.759   8.687   1.214
 4927SOL    HW125460   8.683   8.670   1.151
 4927SOL    HW225461   8.819   8.757   1.176
 4928SOL     OW25462   3.686   7.573   2.897
 4928SOL    HW125463   3.609   7.555   2.959
 4928SOL    HW225464   3.710   7.670   2.901
 4929SOL     OW25465   5.078   5.757   1.071
 4929SOL    HW125466   5.139   5.703   1.130
 4929SOL    HW225467   5.117   5.848   1.059
 4930SOL     OW25468   2.723   2.217   2.865
 4930SOL    HW125469   2.637   2.258   2.894
 4930SOL    HW225470   2.706   2.125   2.829
 4931SOL     OW25471   0.673   7.945   2.128
 4931SOL    HW125472   0.582   7.947   2.088
 4931SOL    HW225473   0.679   7.871   2.194
 4932SOL     OW25474   5.237   8.380   1.407
 4932SOL    HW125475   5.142   8.383   1.376
 4932SOL    HW225476   5.276   8.290   1.386
 4933SOL     OW25477   9.388   0.966   3.409
 4933SOL    HW125478   9.384   0.876   3.451
 4933SOL    HW225479   9.295   0.998   3.389
 4934SOL     OW25480   2.788   5.685   0.559
 4934SOL    HW125481   2.842   5.746   0.501
 4934SOL    HW225482   2.751   5.736   0.637
 4935SOL     OW25483   0.403   6.242   2.176
 4935SOL    HW125484   0.451   6.312   2.229
 4935SOL    HW225485   0.305   6.254   2.186
 4936SOL     OW25486   2.406   2.845   0.381
 4936SOL    HW125487   2.481   2.780   0.370
 4936SOL    HW225488   2.432   2.933   0.341
 4937SOL     OW25489   9.761   2.775   0.792
 4937SOL    HW125490   9.810   2.703   0.841
 4937SOL    HW225491   9.797   2.782   0.698
 4938SOL     OW25492   8.333   5.205   1.433
 4938SOL    HW125493   8.355   5.157   1.519
 4938SOL    HW225494   8.333   5.303   1.450
 4939SOL     OW25495   3.608   0.301   1.924
 4939SOL    HW125496   3.647   0.223   1.974
 4939SOL    HW225497   3.554   0.267   1.846
 4940SOL     OW25498   0.482   4.571   4.030
 4940SOL    HW125499   0.443   4.479   4.017
 4940SOL    HW225500   0.529   4.574   4.118
 4941SOL     OW25501   6.810   8.523   1.672
 4941SOL    HW125502   6.789   8.430   1.642
 4941SOL    HW225503   6.819   8.583   1.593
 4942SOL     OW25504   9.817   5.476   0.624
 4942SOL    HW125505   9.884   5.405   0.649
 4942SOL    HW225506   9.784   5.521   0.707
 4943SOL     OW25507   2.123   0.419   3.176
 4943SOL    HW125508   2.179   0.465   3.107
 4943SOL    HW225509   2.136   0.464   3.264
 4944SOL     OW25510   3.702   2.422   3.853
 4944SOL    HW125511   3.703   2.333   3.807
 4944SOL    HW225512   3.662   2.491   3.793
 4945SOL     OW25513   9.967   3.180   2.789
 4945SOL    HW125514   9.961   3.088   2.751
 4945SOL    HW225515   9.998   3.243   2.719
 4946SOL     OW25516   9.570   9.094   3.614
 4946SOL    HW125517   9.516   9.148   3.679
 4946SOL    HW225518   9.583   9.002   3.650
 4947SOL     OW25519   1.841   9.540   3.068
 4947SOL    HW125520   1.857   9.639   3.074
 4947SOL    HW225521   1.927   9.492   3.087
 4948SOL     OW25522   4.132   4.456   1.641
 4948SOL    HW125523   4.152   4.527   1.573
 4948SOL    HW225524   4.203   4.386   1.637
 4949SOL     OW25525   4.236   2.121   1.653
 4949SOL    HW125526   4.215   2.216   1.677
 4949SOL    HW225527   4.329   2.116   1.617
 4950SOL     OW25528   9.866   7.792   3.516
 4950SOL    HW125529   9.858   7.694   3.536
 4950SOL    HW225530   9.854   7.845   3.600
 4951SOL     OW25531   7.949   5.007   1.326
 4951SOL    HW125532   7.939   5.060   1.409
 4951SOL    HW225533   7.950   4.909   1.348
 4952SOL     OW25534   9.098   3.025   4.025
 4952SOL    HW125535   9.093   3.000   3.928
 4952SOL    HW225536   9.017   2.992   4.072
 4953SOL     OW25537   9.110   9.181   1.277
 4953SOL    HW125538   9.194   9.225   1.310
 4953SOL    HW225539   9.037   9.249   1.272
 4954SOL     OW25540   8.766   6.075   3.494
 4954SOL    HW125541   8.749   6.012   3.418
 4954SOL    HW225542   8.709   6.050   3.572
 4955SOL     OW25543   9.977   7.229   4.255
 4955SOL    HW125544   0.036   7.184   4.321
 4955SOL    HW225545   0.033   7.276   4.187
 4956SOL     OW25546   8.227   1.961   2.037
 4956SOL    HW125547   8.240   1.864   2.057
 4956SOL    HW225548   8.142   1.973   1.985
 4957SOL     OW25549   7.564   4.800   4.112
 4957SOL    HW125550   7.632   4.730   4.089
 4957SOL    HW225551   7.558   4.866   4.037
 4958SOL     OW25552   2.419   1.745   2.607
 4958SOL    HW125553   2.432   1.661   2.659
 4958SOL    HW225554   2.507   1.776   2.570
 4959SOL     OW25555   9.223   3.057   0.647
 4959SOL    HW125556   9.191   3.114   0.722
 4959SOL    HW225557   9.262   2.972   0.683
 4960SOL     OW25558   3.633   3.139   1.104
 4960SOL    HW125559   3.592   3.171   1.018
 4960SOL    HW225560   3.732   3.149   1.100
 4961SOL     OW25561   0.477   3.711   1.506
 4961SOL    HW125562   0.473   3.636   1.571
 4961SOL    HW225563   0.572   3.744   1.498
 4962SOL     OW25564   8.892   3.300   0.737
 4962SOL    HW125565   8.818   3.262   0.791
 4962SOL    HW225566   8.878   3.278   0.640
 4963SOL     OW25567   6.158   0.803   0.487
 4963SOL    HW125568   6.238   0.807   0.547
 4963SOL    HW225569   6.087   0.865   0.523
 4964SOL     OW25570   1.444   4.412   0.860
 4964SOL    HW125571   1.417   4.333   0.805
 4964SOL    HW225572   1.363   4.466   0.883
 4965SOL     OW25573   3.242   7.331   0.284
 4965SOL    HW125574   3.313   7.334   0.214
 4965SOL    HW225575   3.166   7.274   0.252
 4966SOL     OW25576   4.793   0.042   1.848
 4966SOL    HW125577   4.825   0.134   1.826
 4966SOL    HW225578   4.860   9.996   1.907
 4967SOL     OW25579   6.086   9.744   1.128
 4967SOL    HW125580   6.034   9.810   1.073
 4967SOL    HW225581   6.183   9.754   1.107
 4968SOL     OW25582   2.878   5.389   3.497
 4968SOL    HW125583   2.782   5.361   3.503
 4968SOL    HW225584   2.921   5.378   3.587
 4969SOL     OW25585   3.300   0.955   1.752
 4969SOL    HW125586   3.200   0.966   1.754
 4969SOL    HW225587   3.332   0.929   1.843
 4970SOL     OW25588   7.021   9.945   1.032
 4970SOL    HW125589   7.109   9.913   1.068
 4970SOL    HW225590   6.994   0.029   1.080
 4971SOL     OW25591   6.924   8.250   2.932
 4971SOL    HW125592   6.974   8.205   3.006
 4971SOL    HW225593   6.988   8.296   2.871
 4972SOL     OW25594   1.365   3.615   0.273
 4972SOL    HW125595   1.401   3.526   0.246
 4972SOL    HW225596   1.437   3.684   0.264
 4973SOL     OW25597   8.709   8.875   2.849
 4973SOL    HW125598   8.648   8.815   2.900
 4973SOL    HW225599   8.655   8.933   2.789
 4974SOL     OW25600   2.492   7.883   0.751
 4974SOL    HW125601   2.590   7.870   0.767
 4974SOL    HW225602   2.440   7.820   0.808
 4975SOL     OW25603   3.535   4.437   3.974
 4975SOL    HW125604   3.613   4.400   3.924
 4975SOL    HW225605   3.452   4.389   3.947
 4976SOL     OW25606   4.436   2.714   4.351
 4976SOL    HW125607   4.483   2.690   4.267
 4976SOL    HW225608   4.434   2.814   4.361
 4977SOL     OW25609   2.386   9.157   0.479
 4977SOL    HW125610   2.429   9.086   0.534
 4977SOL    HW225611   2.416   9.247   0.510
 4978SOL     OW25612   0.246   5.733   3.342
 4978SOL    HW125613   0.161   5.759   3.295
 4978SOL    HW225614   0.274   5.807   3.403
 4979SOL     OW25615   4.782   3.510   2.826
 4979SOL    HW125616   4.835   3.567   2.762
 4979SOL    HW225617   4.715   3.567   2.873
 4980SOL     OW25618   4.354   0.856   1.133
 4980SOL    HW125619   4.317   0.897   1.049
 4980SOL    HW225620   4.453   0.869   1.136
 4981SOL     OW25621   2.878   4.145   1.760
 4981SOL    HW125622   2.960   4.203   1.765
 4981SOL    HW225623   2.867   4.096   1.847
 4982SOL     OW25624   9.505   2.109   0.389
 4982SOL    HW125625   9.565   2.039   0.351
 4982SOL    HW225626   9.462   2.161   0.315
 4983SOL     OW25627   2.179   2.726   0.497
 4983SOL    HW125628   2.163   2.758   0.591
 4983SOL    HW225629   2.261   2.770   0.461
 4984SOL     OW25630   8.533   2.672   2.552
 4984SOL    HW125631   8.533   2.768   2.527
 4984SOL    HW225632   8.449   2.651   2.602
 4985SOL     OW25633   7.115   6.859   3.427
 4985SOL    HW125634   7.197   6.913   3.445
 4985SOL    HW225635   7.080   6.880   3.336
 4986SOL     OW25636   9.818   7.916   3.750
 4986SOL    HW125637   9.803   8.011   3.777
 4986SOL    HW225638   9.875   7.871   3.819
 4987SOL     OW25639   8.155   5.677   3.814
 4987SOL    HW125640   8.241   5.676   3.864
 4987SOL    HW225641   8.085   5.630   3.867
 4988SOL     OW25642   9.592   2.122   1.761
 4988SOL    HW125643   9.611   2.198   1.823
 4988SOL    HW225644   9.605   2.035   1.810
 4989SOL     OW25645   7.533   6.442   2.530
 4989SOL    HW125646   7.587   6.377   2.477
 4989SOL    HW225647   7.538   6.533   2.489
 4990SOL     OW25648   8.272   7.189   0.330
 4990SOL    HW125649   8.204   7.233   0.389
 4990SOL    HW225650   8.360   7.235   0.341
 4991SOL     OW25651   4.715   2.923   3.440
 4991SOL    HW125652   4.762   2.836   3.426
 4991SOL    HW225653   4.775   2.986   3.488
 4992SOL     OW25654   1.684   6.205   1.380
 4992SOL    HW125655   1.768   6.251   1.411
 4992SOL    HW225656   1.706   6.111   1.353
 4993SOL     OW25657   8.939   6.259   0.564
 4993SOL    HW125658   8.886   6.344   0.574
 4993SOL    HW225659   8.938   6.208   0.649
 4994SOL     OW25660   8.449   1.118   0.072
 4994SOL    HW125661   8.439   1.213   0.042
 4994SOL    HW225662   8.358   1.077   0.084
 4995SOL     OW25663   5.561   7.623   2.287
 4995SOL    HW125664   5.651   7.580   2.278
 4995SOL    HW225665   5.502   7.566   2.344
 4996SOL     OW25666   6.087   0.535   3.553
 4996SOL    HW125667   6.131   0.461   3.501
 4996SOL    HW225668   6.157   0.589   3.600
 4997SOL     OW25669   3.650   3.816   1.963
 4997SOL    HW125670   3.712   3.814   2.041
 4997SOL    HW225671   3.558   3.789   1.993
 4998SOL     OW25672   1.532   8.573   0.665
 4998SOL    HW125673   1.595   8.627   0.609
 4998SOL    HW225674   1.564   8.478   0.670
 4999SOL     OW25675   5.013   4.527   0.711
 4999SOL    HW125676   5.029   4.585   0.632
 4999SOL    HW225677   5.060   4.440   0.699
 5000SOL     OW25678   9.256   0.183   1.482
 5000SOL    HW125679   9.164   0.159   1.512
 5000SOL    HW225680   9.257   0.280   1.455
 5001SOL     OW25681   0.007   3.613   3.840
 5001SOL    HW125682   9.942   3.680   3.877
 5001SOL    HW225683   9.956   3.534   3.805
 5002SOL     OW25684   0.420   6.702   2.227
 5002SOL    HW125685   0.444   6.611   2.260
 5002SOL    HW225686   0.495   6.738   2.171
 5003SOL     OW25687   8.294   6.861   1.685
 5003SOL    HW125688   8.210   6.832   1.731
 5003SOL    HW225689   8.358   6.785   1.681
 5004SOL     OW25690   9.051   6.516   1.810
 5004SOL    HW125691   9.078   6.424   1.781
 5004SOL    HW225692   9.132   6.565   1.842
 5005SOL     OW25693   1.285   8.481   3.038
 5005SOL    HW125694   1.248   8.571   3.064
 5005SOL    HW225695   1.216   8.411   3.054
 5006SOL     OW25696   9.797   5.551   2.207
 5006SOL    HW125697   9.876   5.588   2.159
 5006SOL    HW225698   9.788   5.596   2.296
 5007SOL     OW25699   1.212   1.813   4.402
 5007SOL    HW125700   1.246   1.727   4.438
 5007SOL    HW225701   1.159   1.860   4.472
 5008SOL     OW25702   5.074   7.623   3.742
 5008SOL    HW125703   5.105   7.637   3.647
 5008SOL    HW225704   5.076   7.710   3.791
 5009SOL     OW25705   2.479   3.993   2.280
 5009SOL    HW125706   2.520   4.041   2.358
 5009SOL    HW225707   2.388   3.962   2.305
 5010SOL     OW25708   9.453   5.150   1.740
 5010SOL    HW125709   9.412   5.107   1.820
 5010SOL    HW225710   9.541   5.190   1.764
 5011SOL     OW25711   8.212   0.562   4.328
 5011SOL    HW125712   8.173   0.522   4.411
 5011SOL    HW225713   8.217   0.493   4.256
 5012SOL     OW25714   4.563   3.413   2.405
 5012SOL    HW125715   4.591   3.354   2.329
 5012SOL    HW225716   4.590   3.370   2.492
 5013SOL     OW25717   5.832   0.496   3.226
 5013SOL    HW125718   5.787   0.488   3.316
 5013SOL    HW225719   5.832   0.407   3.181
 5014SOL     OW25720   3.863   3.296   1.866
 5014SOL    HW125721   3.837   3.221   1.927
 5014SOL    HW225722   3.836   3.383   1.908
 5015SOL     OW25723   3.176   7.594   0.284
 5015SOL    HW125724   3.151   7.626   0.376
 5015SOL    HW225725   3.193   7.496   0.287
 5016SOL     OW25726   0.299   5.980   2.657
 5016SOL    HW125727   0.272   6.076   2.663
 5016SOL    HW225728   0.398   5.972   2.665
 5017SOL     OW25729   4.653   2.445   2.351
 5017SOL    HW125730   4.640   2.484   2.443
 5017SOL    HW225731   4.701   2.357   2.359
 5018SOL     OW25732   4.829   2.289   1.856
 5018SOL    HW125733   4.860   2.194   1.857
 5018SOL    HW225734   4.830   2.323   1.762
 5019SOL     OW25735   4.248   9.850   0.833
 5019SOL    HW125736   4.192   9.774   0.867
 5019SOL    HW225737   4.314   9.875   0.903
 5020SOL     OW25738   4.637   0.447   1.140
 5020SOL    HW125739   4.618   0.437   1.042
 5020SOL    HW225740   4.683   0.534   1.157
 5021SOL     OW25741   8.979   9.765   1.383
 5021SOL    HW125742   8.910   9.726   1.322
 5021SOL    HW225743   9.046   9.816   1.329
 5022SOL     OW25744   6.389   0.794   2.953
 5022SOL    HW125745   6.300   0.772   2.913
 5022SOL    HW225746   6.384   0.881   3.002
 5023SOL     OW25747   1.808   0.078   1.579
 5023SOL    HW125748   1.775   0.172   1.576
 5023SOL    HW225749   1.876   0.063   1.507
 5024SOL     OW25750   3.887   9.335   4.193
 5024SOL    HW125751   3.818   9.404   4.214
 5024SOL    HW225752   3.977   9.377   4.193
 5025SOL     OW25753   0.137   8.249   2.265
 5025SOL    HW125754   0.141   8.254   2.165
 5025SOL    HW225755   0.229   8.264   2.302
 5026SOL     OW25756   3.068   6.848   3.470
 5026SOL    HW125757   3.107   6.927   3.423
 5026SOL    HW225758   3.054   6.870   3.566
 5027SOL     OW25759   0.325   4.225   0.164
 5027SOL    HW125760   0.391   4.299   0.171
 5027SOL    HW225761   0.234   4.263   0.145
 5028SOL     OW25762   4.735   9.283   1.352
 5028SOL    HW125763   4.748   9.296   1.450
 5028SOL    HW225764   4.804   9.219   1.317
 5029SOL     OW25765   8.149   5.746   0.296
 5029SOL    HW125766   8.196   5.753   0.208
 5029SOL    HW225767   8.158   5.653   0.331
 5030SOL     OW25768   0.204   3.925   1.161
 5030SOL    HW125769   0.221   3.829   1.183
 5030SOL    HW225770   0.110   3.949   1.184
 5031SOL     OW25771   0.365   5.252   3.412
 5031SOL    HW125772   0.301   5.187   3.453
 5031SOL    HW225773   0.315   5.322   3.361
 5032SOL     OW25774   0.529   4.028   0.206
 5032SOL    HW125775   0.459   4.099   0.195
 5032SOL    HW225776   0.523   3.964   0.130
 5033SOL     OW25777   7.842   7.726   2.382
 5033SOL    HW125778   7.898   7.644   2.369
 5033SOL    HW225779   7.772   7.730   2.311
 5034SOL     OW25780   1.911   8.894   0.939
 5034SOL    HW125781   1.813   8.883   0.952
 5034SOL    HW225782   1.959   8.875   1.025
 5035SOL     OW25783   8.829   8.571   2.560
 5035SOL    HW125784   8.892   8.648   2.559
 5035SOL    HW225785   8.745   8.596   2.513
 5036SOL     OW25786   9.486   3.600   1.032
 5036SOL    HW125787   9.442   3.602   0.942
 5036SOL    HW225788   9.571   3.651   1.029
 5037SOL     OW25789   0.360   9.958   4.129
 5037SOL    HW125790   0.311   9.909   4.201
 5037SOL    HW225791   0.295   0.007   4.071
 5038SOL     OW25792   0.568   1.936   1.380
 5038SOL    HW125793   0.591   1.844   1.349
 5038SOL    HW225794   0.620   2.003   1.328
 5039SOL     OW25795   7.693   2.146   0.086
 5039SOL    HW125796   7.790   2.162   0.069
 5039SOL    HW225797   7.682   2.087   0.166
 5040SOL     OW25798   4.167   4.889   1.791
 5040SOL    HW125799   4.194   4.896   1.695
 5040SOL    HW225800   4.124   4.801   1.807
 5041SOL     OW25801   9.022   6.517   3.695
 5041SOL    HW125802   9.096   6.584   3.699
 5041SOL    HW225803   9.061   6.425   3.681
 5042SOL     OW25804   5.888   0.865   2.788
 5042SOL    HW125805   5.807   0.868   2.730
 5042SOL    HW225806   5.966   0.904   2.739
 5043SOL     OW25807   3.791   2.066   0.161
 5043SOL    HW125808   3.698   2.031   0.167
 5043SOL    HW225809   3.789   2.165   0.144
 5044SOL     OW25810   4.557   8.751   2.332
 5044SOL    HW125811   4.480   8.689   2.348
 5044SOL    HW225812   4.629   8.733   2.400
 5045SOL     OW25813   8.795   8.657   4.196
 5045SOL    HW125814   8.773   8.675   4.100
 5045SOL    HW225815   8.820   8.561   4.207
 5046SOL     OW25816   4.573   0.936   3.776
 5046SOL    HW125817   4.593   0.860   3.715
 5046SOL    HW225818   4.482   0.973   3.754
 5047SOL     OW25819   0.384   5.479   0.862
 5047SOL    HW125820   0.302   5.523   0.827
 5047SOL    HW225821   0.436   5.440   0.786
 5048SOL     OW25822   1.841   0.983   1.425
 5048SOL    HW125823   1.778   1.060   1.416
 5048SOL    HW225824   1.788   0.898   1.431
 5049SOL     OW25825   0.120   3.519   4.336
 5049SOL    HW125826   0.168   3.606   4.348
 5049SOL    HW225827   0.169   3.448   4.386
 5050SOL     OW25828   9.081   6.840   2.770
 5050SOL    HW125829   9.177   6.854   2.793
 5050SOL    HW225830   9.035   6.793   2.846
 5051SOL     OW25831   8.358   3.195   0.383
 5051SOL    HW125832   8.366   3.109   0.332
 5051SOL    HW225833   8.388   3.271   0.325
 5052SOL     OW25834   4.740   7.568   3.458
 5052SOL    HW125835   4.643   7.545   3.446
 5052SOL    HW225836   4.765   7.559   3.554
 5053SOL     OW25837   4.475   8.017   1.349
 5053SOL    HW125838   4.410   8.031   1.424
 5053SOL    HW225839   4.426   8.009   1.262
 5054SOL     OW25840   3.266   9.731   2.016
 5054SOL    HW125841   3.352   9.777   2.037
 5054SOL    HW225842   3.281   9.661   1.946
 5055SOL     OW25843   4.042   3.427   0.438
 5055SOL    HW125844   4.098   3.495   0.391
 5055SOL    HW225845   3.952   3.421   0.393
 5056SOL     OW25846   5.737   0.848   3.021
 5056SOL    HW125847   5.797   0.847   2.942
 5056SOL    HW225848   5.790   0.866   3.104
 5057SOL     OW25849   0.294   3.871   1.726
 5057SOL    HW125850   0.266   3.816   1.647
 5057SOL    HW225851   0.243   3.841   1.807
 5058SOL     OW25852   4.159   8.005   3.978
 5058SOL    HW125853   4.230   8.075   3.985
 5058SOL    HW225854   4.070   8.045   3.998
 5059SOL     OW25855   1.151   9.620   2.580
 5059SOL    HW125856   1.153   9.533   2.531
 5059SOL    HW225857   1.112   9.606   2.671
 5060SOL     OW25858   0.922   9.556   0.980
 5060SOL    HW125859   0.860   9.565   1.058
 5060SOL    HW225860   1.004   9.507   1.008
 5061SOL     OW25861   3.618   8.044   3.428
 5061SOL    HW125862   3.664   7.962   3.395
 5061SOL    HW225863   3.661   8.125   3.388
 5062SOL     OW25864   1.762   0.701   3.289
 5062SOL    HW125865   1.692   0.644   3.332
 5062SOL    HW225866   1.807   0.648   3.216
 5063SOL     OW25867   3.082   3.791   3.185
 5063SOL    HW125868   3.137   3.870   3.160
 5063SOL    HW225869   3.045   3.748   3.103
 5064SOL     OW25870   8.297   1.341   3.254
 5064SOL    HW125871   8.306   1.270   3.324
 5064SOL    HW225872   8.210   1.387   3.265
 5065SOL     OW25873   0.979   8.103   2.884
 5065SOL    HW125874   1.040   8.135   2.811
 5065SOL    HW225875   0.884   8.113   2.854
 5066SOL     OW25876   2.290   1.242   3.915
 5066SOL    HW125877   2.233   1.276   3.991
 5066SOL    HW225878   2.382   1.280   3.922
 5067SOL     OW25879   1.385   7.345   4.081
 5067SOL    HW125880   1.482   7.363   4.099
 5067SOL    HW225881   1.377   7.279   4.006
 5068SOL     OW25882   5.078   2.703   3.100
 5068SOL    HW125883   5.064   2.770   3.028
 5068SOL    HW225884   5.100   2.750   3.186
 5069SOL     OW25885   7.098   9.503   4.228
 5069SOL    HW125886   7.002   9.476   4.236
 5069SOL    HW225887   7.133   9.528   4.318
 5070SOL     OW25888   1.069   1.502   0.718
 5070SOL    HW125889   1.001   1.463   0.656
 5070SOL    HW225890   1.079   1.599   0.700
 5071SOL     OW25891   3.056   1.195   3.757
 5071SOL    HW125892   3.074   1.179   3.854
 5071SOL    HW225893   3.125   1.147   3.703
 5072SOL     OW25894   0.324   5.555   1.949
 5072SOL    HW125895   0.297   5.525   2.040
 5072SOL    HW225896   0.267   5.510   1.880
 5073SOL     OW25897   8.655   2.888   1.527
 5073SOL    HW125898   8.674   2.908   1.623
 5073SOL    HW225899   8.721   2.820   1.493
 5074SOL     OW25900   6.454   9.224   2.493
 5074SOL    HW125901   6.530   9.258   2.549
 5074SOL    HW225902   6.468   9.127   2.473
 5075SOL     OW25903   8.051   2.446   0.105
 5075SOL    HW125904   7.985   2.510   0.146
 5075SOL    HW225905   8.133   2.442   0.162
 5076SOL     OW25906   7.392   9.738   0.825
 5076SOL    HW125907   7.425   9.736   0.920
 5076SOL    HW225908   7.314   9.800   0.818
 5077SOL     OW25909   2.804   4.683   1.619
 5077SOL    HW125910   2.754   4.751   1.672
 5077SOL    HW225911   2.739   4.617   1.580
 5078SOL     OW25912   2.505   4.360   3.085
 5078SOL    HW125913   2.596   4.339   3.122
 5078SOL    HW225914   2.437   4.302   3.130
 5079SOL     OW25915   8.970   9.391   2.628
 5079SOL    HW125916   8.948   9.488   2.616
 5079SOL    HW225917   9.058   9.372   2.585
 5080SOL     OW25918   8.283   4.439   1.174
 5080SOL    HW125919   8.188   4.469   1.165
 5080SOL    HW225920   8.287   4.339   1.169
 5081SOL     OW25921   2.806   1.400   2.596
 5081SOL    HW125922   2.746   1.435   2.525
 5081SOL    HW225923   2.761   1.407   2.685
 5082SOL     OW25924   0.771   8.174   1.303
 5082SOL    HW125925   0.841   8.199   1.370
 5082SOL    HW225926   0.718   8.255   1.278
 5083SOL     OW25927   0.332   4.206   2.078
 5083SOL    HW125928   0.355   4.134   2.143
 5083SOL    HW225929   0.233   4.219   2.077
 5084SOL     OW25930   7.826   0.364   1.957
 5084SOL    HW125931   7.871   0.292   2.011
 5084SOL    HW225932   7.886   0.391   1.882
 5085SOL     OW25933   5.387   0.994   2.175
 5085SOL    HW125934   5.443   0.912   2.161
 5085SOL    HW225935   5.373   1.040   2.088
 5086SOL     OW25936   2.133   2.761   1.308
 5086SOL    HW125937   2.115   2.786   1.213
 5086SOL    HW225938   2.183   2.675   1.312
 5087SOL     OW25939   2.981   0.597   1.318
 5087SOL    HW125940   2.991   0.585   1.220
 5087SOL    HW225941   3.030   0.524   1.366
 5088SOL     OW25942   1.850   5.132   0.803
 5088SOL    HW125943   1.842   5.035   0.784
 5088SOL    HW225944   1.898   5.178   0.729
 5089SOL     OW25945   8.979   1.815   0.266
 5089SOL    HW125946   9.050   1.882   0.286
 5089SOL    HW225947   8.935   1.787   0.351
 5090SOL     OW25948   0.561   5.311   2.088
 5090SOL    HW125949   0.467   5.278   2.103
 5090SOL    HW225950   0.566   5.408   2.110
 5091SOL     OW25951   9.132   5.405   1.144
 5091SOL    HW125952   9.121   5.349   1.226
 5091SOL    HW225953   9.065   5.479   1.145
 5092SOL     OW25954   4.118   1.928   0.697
 5092SOL    HW125955   4.139   1.996   0.768
 5092SOL    HW225956   4.021   1.904   0.702
 5093SOL     OW25957   6.849   0.209   4.054
 5093SOL    HW125958   6.864   0.114   4.026
 5093SOL    HW225959   6.756   0.219   4.089
 5094SOL     OW25960   9.228   5.313   0.894
 5094SOL    HW125961   9.328   5.320   0.901
 5094SOL    HW225962   9.188   5.325   0.985
 5095SOL     OW25963   0.641   3.041   2.296
 5095SOL    HW125964   0.574   3.070   2.227
 5095SOL    HW225965   0.656   2.943   2.288
 5096SOL     OW25966   0.165   8.304   0.525
 5096SOL    HW125967   0.216   8.236   0.578
 5096SOL    HW225968   0.226   8.348   0.459
 5097SOL     OW25969   3.368   3.547   1.063
 5097SOL    HW125970   3.337   3.572   1.155
 5097SOL    HW225971   3.331   3.610   0.996
 5098SOL     OW25972   7.564   9.302   3.558
 5098SOL    HW125973   7.661   9.286   3.542
 5098SOL    HW225974   7.552   9.384   3.614
 5099SOL     OW25975   9.399   1.024   0.193
 5099SOL    HW125976   9.488   1.027   0.146
 5099SOL    HW225977   9.380   1.113   0.234
 5100SOL     OW25978   1.807   1.993   3.668
 5100SOL    HW125979   1.851   2.069   3.716
 5100SOL    HW225980   1.758   2.029   3.588
 5101SOL     OW25981   3.159   9.371   2.131
 5101SOL    HW125982   3.151   9.437   2.206
 5101SOL    HW225983   3.073   9.367   2.081
 5102SOL     OW25984   9.793   5.330   1.543
 5102SOL    HW125985   9.884   5.370   1.536
 5102SOL    HW225986   9.774   5.306   1.638
 5103SOL     OW25987   2.041   6.893   2.703
 5103SOL    HW125988   2.058   6.844   2.789
 5103SOL    HW225989   1.944   6.892   2.683
 5104SOL     OW25990   2.204   1.100   2.037
 5104SOL    HW125991   2.136   1.044   1.989
 5104SOL    HW225992   2.198   1.082   2.135
 5105SOL     OW25993   6.011   8.619   1.063
 5105SOL    HW125994   6.079   8.607   1.136
 5105SOL    HW225995   5.920   8.625   1.104
 5106SOL     OW25996   0.424   4.070   3.052
 5106SOL    HW125997   0.482   4.123   2.990
 5106SOL    HW225998   0.372   4.002   2.999
 5107SOL     OW25999   5.244   7.408   3.774
 5107SOL    HW126000   5.336   7.446   3.768
 5107SOL    HW226001   5.177   7.483   3.775
 5108SOL     OW26002   9.750   7.440   0.830
 5108SOL    HW126003   9.712   7.413   0.918
 5108SOL    HW226004   9.729   7.537   0.813
 5109SOL     OW26005   1.367   1.786   3.030
 5109SOL    HW126006   1.418   1.836   3.100
 5109SOL    HW226007   1.330   1.851   2.964
 5110SOL     OW26008   2.252   0.817   3.088
 5110SOL    HW126009   2.165   0.854   3.120
 5110SOL    HW226010   2.325   0.884   3.104
 5111SOL     OW26011   9.977   0.666   1.110
 5111SOL    HW126012   0.048   0.732   1.086
 5111SOL    HW226013   0.015   0.595   1.169
 5112SOL     OW26014   3.723   6.552   1.588
 5112SOL    HW126015   3.716   6.648   1.561
 5112SOL    HW226016   3.633   6.509   1.584
 5113SOL     OW26017   4.339   6.423   2.029
 5113SOL    HW126018   4.341   6.431   1.929
 5113SOL    HW226019   4.317   6.329   2.054
 5114SOL     OW26020   8.023   9.108   3.774
 5114SOL    HW126021   8.057   9.015   3.791
 5114SOL    HW226022   8.056   9.139   3.685
 5115SOL     OW26023   2.193   9.408   3.385
 5115SOL    HW126024   2.171   9.485   3.446
 5115SOL    HW226025   2.129   9.333   3.403
 5116SOL     OW26026   1.182   2.981   2.325
 5116SOL    HW126027   1.221   3.069   2.349
 5116SOL    HW226028   1.254   2.911   2.326
 5117SOL     OW26029   3.491   4.500   3.656
 5117SOL    HW126030   3.519   4.410   3.625
 5117SOL    HW226031   3.396   4.517   3.627
 5118SOL     OW26032   6.826   8.878   1.256
 5118SOL    HW126033   6.909   8.845   1.211
 5118SOL    HW226034   6.819   8.977   1.243
 5119SOL     OW26035   8.512   6.971   1.531
 5119SOL    HW126036   8.588   6.956   1.594
 5119SOL    HW226037   8.426   6.947   1.576
 5120SOL     OW26038   2.300   6.332   1.342
 5120SOL    HW126039   2.254   6.396   1.403
 5120SOL    HW226040   2.311   6.374   1.252
 5121SOL     OW26041   0.798   6.955   1.513
 5121SOL    HW126042   0.823   6.887   1.444
 5121SOL    HW226043   0.866   7.028   1.514
 5122SOL     OW26044   1.163   1.620   3.999
 5122SOL    HW126045   1.125   1.691   4.058
 5122SOL    HW226046   1.249   1.587   4.038
 5123SOL     OW26047   9.335   3.574   2.191
 5123SOL    HW126048   9.275   3.578   2.112
 5123SOL    HW226049   9.280   3.563   2.274
 5124SOL     OW26050   5.028   9.950   1.487
 5124SOL    HW126051   5.092   0.018   1.525
 5124SOL    HW226052   5.033   9.866   1.541
 5125SOL     OW26053   0.629   0.985   1.052
 5125SOL    HW126054   0.652   0.909   0.991
 5125SOL    HW226055   0.663   0.966   1.144
 5126SOL     OW26056   5.681   8.028   4.293
 5126SOL    HW126057   5.689   8.101   4.225
 5126SOL    HW226058   5.693   8.066   4.385
 5127SOL     OW26059   2.268   5.197   3.907
 5127SOL    HW126060   2.307   5.281   3.945
 5127SOL    HW226061   2.340   5.127   3.900
 5128SOL     OW26062   8.232   8.619   4.063
 5128SOL    HW126063   8.239   8.524   4.032
 5128SOL    HW226064   8.276   8.680   3.997
 5129SOL     OW26065   8.901   8.682   3.244
 5129SOL    HW126066   8.974   8.652   3.306
 5129SOL    HW226067   8.813   8.680   3.291
 5130SOL     OW26068   0.790   6.667   4.296
 5130SOL    HW126069   0.846   6.617   4.230
 5130SOL    HW226070   0.775   6.760   4.263
 5131SOL     OW26071   9.476   5.843   1.750
 5131SOL    HW126072   9.466   5.900   1.831
 5131SOL    HW226073   9.520   5.757   1.774
 5132SOL     OW26074   1.700   2.172   2.556
 5132SOL    HW126075   1.663   2.189   2.647
 5132SOL    HW226076   1.771   2.240   2.535
 5133SOL     OW26077   0.984   9.698   3.366
 5133SOL    HW126078   1.077   9.697   3.404
 5133SOL    HW226079   0.951   9.604   3.356
 5134SOL     OW26080   1.214   2.430   2.823
 5134SOL    HW126081   1.233   2.358   2.889
 5134SOL    HW226082   1.176   2.510   2.871
 5135SOL     OW26083   1.642   4.912   3.801
 5135SOL    HW126084   1.735   4.896   3.768
 5135SOL    HW226085   1.601   4.986   3.749
 5136SOL     OW26086   0.011   8.662   3.107
 5136SOL    HW126087   0.001   8.674   3.205
 5136SOL    HW226088   9.923   8.675   3.062
 5137SOL     OW26089   7.940   9.207   3.080
 5137SOL    HW126090   7.972   9.144   3.150
 5137SOL    HW226091   7.914   9.157   2.998
 5138SOL     OW26092   0.604   2.902   2.627
 5138SOL    HW126093   0.661   2.835   2.579
 5138SOL    HW226094   0.663   2.969   2.671
 5139SOL     OW26095   3.024   1.469   1.413
 5139SOL    HW126096   2.980   1.479   1.502
 5139SOL    HW226097   2.957   1.482   1.340
 5140SOL     OW26098   7.599   9.377   0.921
 5140SOL    HW126099   7.544   9.401   1.002
 5140SOL    HW226100   7.619   9.279   0.924
 5141SOL     OW26101   8.956   5.421   4.041
 5141SOL    HW126102   8.991   5.370   4.119
 5141SOL    HW226103   8.889   5.488   4.073
 5142SOL     OW26104   3.269   5.152   1.589
 5142SOL    HW126105   3.171   5.166   1.572
 5142SOL    HW226106   3.305   5.229   1.641
 5143SOL     OW26107   0.781   7.386   3.991
 5143SOL    HW126108   0.839   7.454   3.945
 5143SOL    HW226109   0.686   7.398   3.961
 5144SOL     OW26110   4.018   0.364   4.077
 5144SOL    HW126111   3.930   0.409   4.063
 5144SOL    HW226112   4.067   0.409   4.151
 5145SOL     OW26113   6.363   9.850   4.364
 5145SOL    HW126114   6.341   9.889   4.453
 5145SOL    HW226115   6.280   9.844   4.308
 5146SOL     OW26116   4.618   1.462   0.321
 5146SOL    HW126117   4.547   1.392   0.322
 5146SOL    HW226118   4.612   1.515   0.406
 5147SOL     OW26119   7.783   0.945   3.696
 5147SOL    HW126120   7.738   0.856   3.707
 5147SOL    HW226121   7.773   0.998   3.780
 5148SOL     OW26122   3.296   1.159   2.156
 5148SOL    HW126123   3.355   1.101   2.100
 5148SOL    HW226124   3.262   1.235   2.100
 5149SOL     OW26125   1.669   3.395   2.372
 5149SOL    HW126126   1.595   3.460   2.388
 5149SOL    HW226127   1.630   3.304   2.357
 5150SOL     OW26128   0.728   7.460   3.606
 5150SOL    HW126129   0.809   7.406   3.582
 5150SOL    HW226130   0.654   7.398   3.632
 5151SOL     OW26131   2.047   7.253   3.806
 5151SOL    HW126132   2.016   7.325   3.743
 5151SOL    HW226133   2.056   7.292   3.898
 5152SOL     OW26134   8.818   6.703   3.604
 5152SOL    HW126135   8.737   6.662   3.647
 5152SOL    HW226136   8.899   6.649   3.629
 5153SOL     OW26137   4.784   1.078   2.001
 5153SOL    HW126138   4.750   1.144   1.934
 5153SOL    HW226139   4.881   1.095   2.019
 5154SOL     OW26140   1.021   8.101   0.670
 5154SOL    HW126141   0.941   8.042   0.672
 5154SOL    HW226142   0.998   8.191   0.707
 5155SOL     OW26143   7.182   9.911   0.800
 5155SOL    HW126144   7.148   9.879   0.712
 5155SOL    HW226145   7.107   9.916   0.866
 5156SOL     OW26146   2.012   1.625   3.219
 5156SOL    HW126147   1.986   1.577   3.303
 5156SOL    HW226148   1.930   1.661   3.174
 5157SOL     OW26149   0.162   7.857   1.502
 5157SOL    HW126150   0.125   7.770   1.468
 5157SOL    HW226151   0.262   7.852   1.505
 5158SOL     OW26152   4.434   3.382   1.800
 5158SOL    HW126153   4.504   3.415   1.736
 5158SOL    HW226154   4.455   3.416   1.892
 5159SOL     OW26155   3.043   1.982   2.883
 5159SOL    HW126156   3.103   2.013   2.957
 5159SOL    HW226157   2.958   1.946   2.921
 5160SOL     OW26158   5.361   8.199   3.962
 5160SOL    HW126159   5.403   8.165   3.878
 5160SOL    HW226160   5.313   8.124   4.007
 5161SOL     OW26161   2.075   8.242   3.470
 5161SOL    HW126162   2.167   8.207   3.485
 5161SOL    HW226163   2.018   8.225   3.551
 5162SOL     OW26164   8.648   3.949   2.944
 5162SOL    HW126165   8.614   3.915   3.031
 5162SOL    HW226166   8.654   4.049   2.947
 5163SOL     OW26167   3.347   1.458   4.303
 5163SOL    HW126168   3.247   1.455   4.300
 5163SOL    HW226169   3.381   1.511   4.226
 5164SOL     OW26170   9.561   2.366   0.893
 5164SOL    HW126171   9.656   2.352   0.864
 5164SOL    HW226172   9.511   2.280   0.885
 5165SOL     OW26173   6.090   9.878   3.092
 5165SOL    HW126174   6.161   9.917   3.034
 5165SOL    HW226175   6.112   9.783   3.113
 5166SOL     OW26176   1.520   8.416   1.945
 5166SOL    HW126177   1.428   8.377   1.945
 5166SOL    HW226178   1.521   8.498   2.001
 5167SOL     OW26179   7.823   6.030   3.106
 5167SOL    HW126180   7.748   6.011   3.042
 5167SOL    HW226181   7.816   6.123   3.139
 5168SOL     OW26182   0.863   8.389   0.366
 5168SOL    HW126183   0.884   8.292   0.372
 5168SOL    HW226184   0.947   8.441   0.350
 5169SOL     OW26185   1.888   7.294   1.707
 5169SOL    HW126186   1.942   7.377   1.693
 5169SOL    HW226187   1.791   7.315   1.695
 5170SOL     OW26188   0.051   6.291   3.848
 5170SOL    HW126189   0.037   6.274   3.750
 5170SOL    HW226190   9.965   6.274   3.897
 5171SOL     OW26191   2.010   4.941   1.730
 5171SOL    HW126192   2.066   4.968   1.808
 5171SOL    HW226193   1.938   4.879   1.761
 5172SOL     OW26194   2.193   2.936   3.289
 5172SOL    HW126195   2.188   2.994   3.208
 5172SOL    HW226196   2.284   2.897   3.297
 5173SOL     OW26197   6.254   1.536   3.654
 5173SOL    HW126198   6.161   1.558   3.682
 5173SOL    HW226199   6.254   1.499   3.561
 5174SOL     OW26200   4.541   0.658   1.495
 5174SOL    HW126201   4.554   0.604   1.578
 5174SOL    HW226202   4.485   0.607   1.430
 5175SOL     OW26203   3.332   7.262   2.767
 5175SOL    HW126204   3.264   7.274   2.695
 5175SOL    HW226205   3.419   7.235   2.727
 5176SOL     OW26206   6.616   8.192   1.919
 5176SOL    HW126207   6.634   8.126   1.847
 5176SOL    HW226208   6.690   8.259   1.924
 5177SOL     OW26209   0.858   6.461   3.202
 5177SOL    HW126210   0.807   6.408   3.270
 5177SOL    HW226211   0.870   6.406   3.119
 5178SOL     OW26212   1.391   0.022   2.318
 5178SOL    HW126213   1.433   0.103   2.360
 5178SOL    HW226214   1.386   0.035   2.219
 5179SOL     OW26215   4.459   2.302   2.216
 5179SOL    HW126216   4.521   2.363   2.265
 5179SOL    HW226217   4.506   2.262   2.137
 5180SOL     OW26218   0.620   5.184   2.426
 5180SOL    HW126219   0.693   5.198   2.359
 5180SOL    HW226220   0.586   5.272   2.458
 5181SOL     OW26221   9.150   0.186   3.027
 5181SOL    HW126222   9.214   0.253   2.990
 5181SOL    HW226223   9.142   0.110   2.963
 5182SOL     OW26224   4.211   1.700   3.382
 5182SOL    HW126225   4.258   1.625   3.337
 5182SOL    HW226226   4.136   1.664   3.439
 5183SOL     OW26227   3.260   5.434   4.191
 5183SOL    HW126228   3.233   5.525   4.159
 5183SOL    HW226229   3.357   5.419   4.169
 5184SOL     OW26230   1.400   2.832   1.149
 5184SOL    HW126231   1.426   2.843   1.245
 5184SOL    HW226232   1.388   2.734   1.129
 5185SOL     OW26233   4.884   1.901   3.398
 5185SOL    HW126234   4.826   1.826   3.430
 5185SOL    HW226235   4.831   1.960   3.337
 5186SOL     OW26236   7.418   0.887   0.508
 5186SOL    HW126237   7.408   0.983   0.484
 5186SOL    HW226238   7.486   0.878   0.582
 5187SOL     OW26239   0.066   3.323   4.137
 5187SOL    HW126240   0.153   3.294   4.096
 5187SOL    HW226241   0.082   3.398   4.201
 5188SOL     OW26242   3.131   3.185   4.120
 5188SOL    HW126243   3.187   3.108   4.090
 5188SOL    HW226244   3.039   3.176   4.082
 5189SOL     OW26245   3.431   1.919   3.181
 5189SOL    HW126246   3.500   1.855   3.216
 5189SOL    HW226247   3.475   2.006   3.157
 5190SOL     OW26248   7.572   0.071   3.091
 5190SOL    HW126249   7.472   0.070   3.088
 5190SOL    HW226250   7.604   0.164   3.073
 5191SOL     OW26251   5.607   6.863   2.842
 5191SOL    HW126252   5.512   6.838   2.828
 5191SOL    HW226253   5.634   6.841   2.935
 5192SOL     OW26254   8.574   8.701   4.358
 5192SOL    HW126255   8.654   8.684   4.301
 5192SOL    HW226256   8.599   8.765   4.431
 5193SOL     OW26257   3.814   4.621   0.555
 5193SOL    HW126258   3.873   4.586   0.482
 5193SOL    HW226259   3.833   4.571   0.640
 5194SOL     OW26260   7.860   3.736   4.292
 5194SOL    HW126261   7.779   3.690   4.254
 5194SOL    HW226262   7.846   3.835   4.292
 5195SOL     OW26263   6.803   0.103   3.705
 5195SOL    HW126264   6.736   0.040   3.744
 5195SOL    HW226265   6.783   0.196   3.737
 5196SOL     OW26266   5.364   8.068   2.745
 5196SOL    HW126267   5.406   8.157   2.726
 5196SOL    HW226268   5.404   8.030   2.828
 5197SOL     OW26269   9.122   0.510   1.580
 5197SOL    HW126270   9.206   0.533   1.629
 5197SOL    HW226271   9.108   0.575   1.506
 5198SOL     OW26272   0.524   9.348   1.422
 5198SOL    HW126273   0.528   9.418   1.351
 5198SOL    HW226274   0.529   9.391   1.512
 5199SOL     OW26275   3.006   6.861   3.058
 5199SOL    HW126276   3.104   6.881   3.064
 5199SOL    HW226277   2.991   6.792   2.987
 5200SOL     OW26278   2.230   7.532   3.673
 5200SOL    HW126279   2.134   7.507   3.672
 5200SOL    HW226280   2.249   7.592   3.750
 5201SOL     OW26281   2.909   0.715   4.171
 5201SOL    HW126282   2.843   0.694   4.244
 5201SOL    HW226283   2.891   0.656   4.092
 5202SOL     OW26284   4.455   8.441   2.031
 5202SOL    HW126285   4.551   8.415   2.034
 5202SOL    HW226286   4.407   8.386   1.963
 5203SOL     OW26287   0.708   9.227   0.378
 5203SOL    HW126288   0.670   9.311   0.416
 5203SOL    HW226289   0.672   9.213   0.286
 5204SOL     OW26290   9.271   8.195   3.137
 5204SOL    HW126291   9.366   8.164   3.137
 5204SOL    HW226292   9.260   8.271   3.074
 5205SOL     OW26293   1.461   4.413   1.919
 5205SOL    HW126294   1.519   4.440   1.842
 5205SOL    HW226295   1.380   4.472   1.922
 5206SOL     OW26296   5.863   8.709   1.752
 5206SOL    HW126297   5.963   8.711   1.755
 5206SOL    HW226298   5.831   8.777   1.685
 5207SOL     OW26299   0.255   9.548   3.539
 5207SOL    HW126300   0.200   9.628   3.516
 5207SOL    HW226301   0.251   9.532   3.638
 5208SOL     OW26302   2.775   7.224   2.661
 5208SOL    HW126303   2.786   7.128   2.635
 5208SOL    HW226304   2.687   7.237   2.707
 5209SOL     OW26305   1.885   1.708   2.133
 5209SOL    HW126306   1.843   1.796   2.111
 5209SOL    HW226307   1.983   1.721   2.147
 5210SOL     OW26308   1.968   0.684   2.863
 5210SOL    HW126309   2.049   0.647   2.817
 5210SOL    HW226310   1.973   0.784   2.863
 5211SOL     OW26311   0.681   1.267   2.056
 5211SOL    HW126312   0.653   1.296   1.964
 5211SOL    HW226313   0.602   1.265   2.116
 5212SOL     OW26314   8.622   2.112   0.105
 5212SOL    HW126315   8.690   2.155   0.163
 5212SOL    HW226316   8.664   2.082   0.019
 5213SOL     OW26317   5.603   0.653   3.182
 5213SOL    HW126318   5.685   0.600   3.201
 5213SOL    HW226319   5.624   0.728   3.120
 5214SOL     OW26320   8.517   2.650   2.887
 5214SOL    HW126321   8.534   2.739   2.930
 5214SOL    HW226322   8.604   2.606   2.867
 5215SOL     OW26323   2.974   1.004   1.508
 5215SOL    HW126324   3.025   0.928   1.467
 5215SOL    HW226325   3.026   1.088   1.499
 5216SOL     OW26326   3.020   7.631   1.938
 5216SOL    HW126327   3.024   7.724   1.901
 5216SOL    HW226328   3.093   7.620   2.006
 5217SOL     OW26329   5.774   1.220   3.537
 5217SOL    HW126330   5.772   1.148   3.607
 5217SOL    HW226331   5.709   1.292   3.560
 5218SOL     OW26332   3.774   0.485   4.068
 5218SOL    HW126333   3.734   0.399   4.099
 5218SOL    HW226334   3.750   0.558   4.133
 5219SOL     OW26335   8.694   2.152   4.239
 5219SOL    HW126336   8.750   2.124   4.317
 5219SOL    HW226337   8.720   2.098   4.158
 5220SOL     OW26338   7.198   8.828   1.949
 5220SOL    HW126339   7.248   8.887   1.886
 5220SOL    HW226340   7.163   8.749   1.899
 5221SOL     OW26341   7.948   3.014   3.036
 5221SOL    HW126342   8.032   2.995   2.986
 5221SOL    HW226343   7.962   3.091   3.098
 5222SOL     OW26344   3.932   7.314   2.158
 5222SOL    HW126345   3.909   7.270   2.071
 5222SOL    HW226346   3.903   7.409   2.156
 5223SOL     OW26347   3.679   0.481   1.556
 5223SOL    HW126348   3.669   0.561   1.615
 5223SOL    HW226349   3.720   0.509   1.469
 5224SOL     OW26350   9.280   5.707   0.181
 5224SOL    HW126351   9.371   5.670   0.166
 5224SOL    HW226352   9.213   5.633   0.184
 5225SOL     OW26353   4.088   7.833   1.468
 5225SOL    HW126354   4.009   7.826   1.529
 5225SOL    HW226355   4.129   7.743   1.458
 5226SOL     OW26356   9.406   5.309   2.455
 5226SOL    HW126357   9.451   5.344   2.537
 5226SOL    HW226358   9.442   5.219   2.433
 5227SOL     OW26359   9.969   4.156   2.664
 5227SOL    HW126360   9.922   4.081   2.711
 5227SOL    HW226361   0.035   4.119   2.599
 5228SOL     OW26362   0.572   5.161   3.713
 5228SOL    HW126363   0.605   5.234   3.654
 5228SOL    HW226364   0.567   5.076   3.662
 5229SOL     OW26365   8.801   9.815   0.300
 5229SOL    HW126366   8.773   9.800   0.205
 5229SOL    HW226367   8.741   9.764   0.361
 5230SOL     OW26368   8.461   5.776   1.595
 5230SOL    HW126369   8.378   5.746   1.548
 5230SOL    HW226370   8.538   5.773   1.531
 5231SOL     OW26371   3.597   4.721   2.850
 5231SOL    HW126372   3.636   4.668   2.925
 5231SOL    HW226373   3.576   4.661   2.774
 5232SOL     OW26374   0.566   3.934   1.715
 5232SOL    HW126375   0.615   3.899   1.635
 5232SOL    HW226376   0.470   3.908   1.709
 5233SOL     OW26377   0.733   5.901   4.207
 5233SOL    HW126378   0.656   5.875   4.266
 5233SOL    HW226379   0.816   5.911   4.262
 5234SOL     OW26380   2.925   3.755   0.171
 5234SOL    HW126381   3.020   3.724   0.182
 5234SOL    HW226382   2.919   3.853   0.187
 5235SOL     OW26383   0.645   0.848   0.461
 5235SOL    HW126384   0.647   0.901   0.376
 5235SOL    HW226385   0.576   0.776   0.454
 5236SOL     OW26386   9.248   9.547   2.354
 5236SOL    HW126387   9.234   9.614   2.427
 5236SOL    HW226388   9.217   9.457   2.385
 5237SOL     OW26389   0.946   4.900   3.284
 5237SOL    HW126390   0.878   4.887   3.357
 5237SOL    HW226391   0.922   4.981   3.231
 5238SOL     OW26392   9.968   2.362   0.169
 5238SOL    HW126393   9.871   2.382   0.165
 5238SOL    HW226394   9.985   2.273   0.127
 5239SOL     OW26395   0.474   7.236   1.985
 5239SOL    HW126396   0.513   7.313   1.935
 5239SOL    HW226397   0.383   7.260   2.017
 5240SOL     OW26398   8.457   5.557   0.427
 5240SOL    HW126399   8.495   5.570   0.336
 5240SOL    HW226400   8.481   5.635   0.485
 5241SOL     OW26401   9.202   2.200   1.203
 5241SOL    HW126402   9.138   2.180   1.278
 5241SOL    HW226403   9.151   2.205   1.117
 5242SOL     OW26404   0.855   4.717   0.368
 5242SOL    HW126405   0.857   4.653   0.444
 5242SOL    HW226406   0.897   4.675   0.287
 5243SOL     OW26407   1.982   3.291   0.238
 5243SOL    HW126408   1.951   3.363   0.175
 5243SOL    HW226409   2.082   3.288   0.238
 5244SOL     OW26410   8.691   6.833   4.188
 5244SOL    HW126411   8.595   6.859   4.180
 5244SOL    HW226412   8.723   6.797   4.100
 5245SOL     OW26413   1.048   0.393   2.205
 5245SOL    HW126414   1.038   0.309   2.259
 5245SOL    HW226415   1.050   0.472   2.266
 5246SOL     OW26416   7.625   3.171   1.973
 5246SOL    HW126417   7.660   3.251   2.023
 5246SOL    HW226418   7.634   3.187   1.875
 5247SOL     OW26419   0.258   9.023   0.896
 5247SOL    HW126420   0.325   8.958   0.860
 5247SOL    HW226421   0.208   8.981   0.972
 5248SOL     OW26422   0.572   4.729   2.315
 5248SOL    HW126423   0.537   4.635   2.317
 5248SOL    HW226424   0.650   4.737   2.376
 5249SOL     OW26425   3.526   1.314   3.622
 5249SOL    HW126426   3.558   1.300   3.528
 5249SOL    HW226427   3.560   1.240   3.680
 5250SOL     OW26428   8.609   6.517   3.679
 5250SOL    HW126429   8.594   6.448   3.608
 5250SOL    HW226430   8.521   6.546   3.716
 5251SOL     OW26431   1.135   3.563   3.284
 5251SOL    HW126432   1.223   3.527   3.253
 5251SOL    HW226433   1.065   3.542   3.215
 5252SOL     OW26434   9.551   8.635   2.292
 5252SOL    HW126435   9.591   8.549   2.325
 5252SOL    HW226436   9.452   8.632   2.306
 5253SOL     OW26437   8.755   5.217   4.237
 5253SOL    HW126438   8.845   5.250   4.267
 5253SOL    HW226439   8.693   5.295   4.228
 5254SOL     OW26440   3.069   4.862   1.840
 5254SOL    HW126441   3.164   4.882   1.814
 5254SOL    HW226442   3.053   4.764   1.834
 5255SOL     OW26443   8.849   6.621   2.238
 5255SOL    HW126444   8.894   6.662   2.158
 5255SOL    HW226445   8.832   6.692   2.306
 5256SOL     OW26446   0.087   1.931   2.832
 5256SOL    HW126447   0.144   1.889   2.903
 5256SOL    HW226448   0.022   1.994   2.873
 5257SOL     OW26449   9.766   4.366   3.770
 5257SOL    HW126450   9.741   4.280   3.727
 5257SOL    HW226451   9.786   4.434   3.700
 5258SOL     OW26452   3.068   0.670   2.824
 5258SOL    HW126453   3.144   0.733   2.807
 5258SOL    HW226454   3.044   0.671   2.921
 5259SOL     OW26455   8.676   3.209   0.266
 5259SOL    HW126456   8.636   3.118   0.260
 5259SOL    HW226457   8.604   3.277   0.252
 5260SOL     OW26458   0.505   4.460   2.288
 5260SOL    HW126459   0.447   4.398   2.341
 5260SOL    HW226460   0.524   4.419   2.198
 5261SOL     OW26461   8.605   0.696   0.274
 5261SOL    HW126462   8.704   0.685   0.259
 5261SOL    HW226463   8.558   0.612   0.247
 5262SOL     OW26464   5.681   7.448   3.114
 5262SOL    HW126465   5.754   7.386   3.141
 5262SOL    HW226466   5.710   7.501   3.034
 5263SOL     OW26467   8.067   7.255   4.128
 5263SOL    HW126468   8.156   7.210   4.138
 5263SOL    HW226469   8.045   7.262   4.031
 5264SOL     OW26470   1.214   3.068   0.417
 5264SOL    HW126471   1.137   3.125   0.447
 5264SOL    HW226472   1.190   3.022   0.332
 5265SOL     OW26473   4.351   7.836   3.676
 5265SOL    HW126474   4.361   7.769   3.750
 5265SOL    HW226475   4.258   7.873   3.677
 5266SOL     OW26476   0.021   8.379   0.746
 5266SOL    HW126477   9.943   8.319   0.760
 5266SOL    HW226478   0.075   8.348   0.668
 5267SOL     OW26479   8.646   7.483   1.361
 5267SOL    HW126480   8.650   7.473   1.262
 5267SOL    HW226481   8.606   7.401   1.402
 5268SOL     OW26482   0.561   8.082   2.462
 5268SOL    HW126483   0.534   8.114   2.553
 5268SOL    HW226484   0.641   8.023   2.470
 5269SOL     OW26485   4.599   3.057   1.641
 5269SOL    HW126486   4.567   3.012   1.557
 5269SOL    HW226487   4.663   3.129   1.618
 5270SOL     OW26488   9.977   4.175   1.820
 5270SOL    HW126489   0.055   4.174   1.758
 5270SOL    HW226490   0.008   4.200   1.912
 5271SOL     OW26491   7.354   7.201   3.699
 5271SOL    HW126492   7.386   7.224   3.790
 5271SOL    HW226493   7.404   7.256   3.631
 5272SOL     OW26494   0.037   4.617   2.387
 5272SOL    HW126495   0.018   4.617   2.289
 5272SOL    HW226496   0.021   4.525   2.423
 5273SOL     OW26497   0.501   1.892   0.895
 5273SOL    HW126498   0.490   1.797   0.927
 5273SOL    HW226499   0.524   1.891   0.798
 5274SOL     OW26500   0.875   7.790   1.329
 5274SOL    HW126501   0.949   7.723   1.324
 5274SOL    HW226502   0.896   7.857   1.400
 5275SOL     OW26503   2.963   5.022   3.449
 5275SOL    HW126504   3.004   5.092   3.390
 5275SOL    HW226505   2.912   4.957   3.392
 5276SOL     OW26506   2.556   0.456   3.691
 5276SOL    HW126507   2.646   0.485   3.658
 5276SOL    HW226508   2.565   0.370   3.740
 5277SOL     OW26509   0.245   1.145   2.840
 5277SOL    HW126510   0.340   1.125   2.866
 5277SOL    HW226511   0.241   1.165   2.742
 5278SOL     OW26512   4.254   0.843   2.113
 5278SOL    HW126513   4.218   0.894   2.035
 5278SOL    HW226514   4.353   0.854   2.119
 5279SOL     OW26515   1.861   4.268   0.721
 5279SOL    HW126516   1.906   4.286   0.634
 5279SOL    HW226517   1.827   4.355   0.759
 5280SOL     OW26518   8.616   6.134   4.150
 5280SOL    HW126519   8.614   6.233   4.136
 5280SOL    HW226520   8.603   6.088   4.063
 5281SOL     OW26521   9.730   8.107   2.198
 5281SOL    HW126522   9.645   8.125   2.246
 5281SOL    HW226523   9.723   8.019   2.150
 5282SOL     OW26524   3.719   8.113   2.831
 5282SOL    HW126525   3.749   8.019   2.811
 5282SOL    HW226526   3.795   8.176   2.818
 5283SOL     OW26527   9.970   4.955   1.261
 5283SOL    HW126528   9.979   4.925   1.356
 5283SOL    HW226529   9.904   4.896   1.214
 5284SOL     OW26530   2.783   4.262   4.306
 5284SOL    HW126531   2.872   4.298   4.277
 5284SOL    HW226532   2.796   4.196   4.379
 5285SOL     OW26533   2.085   1.148   0.251
 5285SOL    HW126534   2.140   1.229   0.269
 5285SOL    HW226535   2.138   1.083   0.197
 5286SOL     OW26536   3.461   6.918   2.733
 5286SOL    HW126537   3.520   6.892   2.809
 5286SOL    HW226538   3.494   7.003   2.693
 5287SOL     OW26539   8.311   0.700   0.478
 5287SOL    HW126540   8.291   0.721   0.382
 5287SOL    HW226541   8.347   0.608   0.485
 5288SOL     OW26542   3.922   0.773   1.459
 5288SOL    HW126543   3.837   0.791   1.409
 5288SOL    HW226544   4.000   0.806   1.405
 5289SOL     OW26545   7.013   1.811   2.710
 5289SOL    HW126546   6.915   1.820   2.692
 5289SOL    HW226547   7.057   1.766   2.632
 5290SOL     OW26548   1.586   8.931   0.708
 5290SOL    HW126549   1.672   8.944   0.659
 5290SOL    HW226550   1.604   8.925   0.806
 5291SOL     OW26551   2.651   8.496   0.653
 5291SOL    HW126552   2.615   8.403   0.642
 5291SOL    HW226553   2.751   8.494   0.648
 5292SOL     OW26554   4.718   9.465   1.122
 5292SOL    HW126555   4.722   9.415   1.208
 5292SOL    HW226556   4.634   9.442   1.073
 5293SOL     OW26557   1.077   9.246   1.380
 5293SOL    HW126558   1.162   9.236   1.329
 5293SOL    HW226559   1.034   9.157   1.392
 5294SOL     OW26560   2.835   5.442   1.873
 5294SOL    HW126561   2.916   5.480   1.827
 5294SOL    HW226562   2.783   5.516   1.915
 5295SOL     OW26563   8.496   8.710   1.621
 5295SOL    HW126564   8.482   8.762   1.705
 5295SOL    HW226565   8.531   8.619   1.642
 5296SOL     OW26566   3.920   8.351   2.136
 5296SOL    HW126567   3.924   8.291   2.216
 5296SOL    HW226568   3.999   8.331   2.077
 5297SOL     OW26569   9.330   3.125   3.628
 5297SOL    HW126570   9.322   3.112   3.529
 5297SOL    HW226571   9.255   3.078   3.674
 5298SOL     OW26572   3.914   0.047   0.387
 5298SOL    HW126573   3.884   0.095   0.304
 5298SOL    HW226574   3.937   0.114   0.458
 5299SOL     OW26575   8.041   6.475   0.130
 5299SOL    HW126576   7.949   6.449   0.158
 5299SOL    HW226577   8.101   6.395   0.136
 5300SOL     OW26578   7.863   9.233   1.887
 5300SOL    HW126579   7.796   9.248   1.815
 5300SOL    HW226580   7.867   9.136   1.910
 5301SOL     OW26581   5.257   3.864   0.651
 5301SOL    HW126582   5.286   3.877   0.557
 5301SOL    HW226583   5.270   3.949   0.702
 5302SOL     OW26584   4.779   0.380   2.843
 5302SOL    HW126585   4.762   0.474   2.871
 5302SOL    HW226586   4.693   0.335   2.821
 5303SOL     OW26587   3.446   0.192   1.731
 5303SOL    HW126588   3.366   0.194   1.790
 5303SOL    HW226589   3.447   0.107   1.678
 5304SOL     OW26590   9.750   5.547   0.881
 5304SOL    HW126591   9.686   5.479   0.915
 5304SOL    HW226592   9.832   5.548   0.938
 5305SOL     OW26593   4.965   8.802   3.549
 5305SOL    HW126594   5.019   8.769   3.472
 5305SOL    HW226595   5.015   8.788   3.634
 5306SOL     OW26596   3.890   1.065   0.409
 5306SOL    HW126597   3.988   1.072   0.388
 5306SOL    HW226598   3.838   1.118   0.342
 5307SOL     OW26599   0.917   7.864   3.003
 5307SOL    HW126600   0.948   7.949   2.960
 5307SOL    HW226601   0.905   7.794   2.933
 5308SOL     OW26602   2.313   2.488   3.887
 5308SOL    HW126603   2.349   2.562   3.944
 5308SOL    HW226604   2.243   2.525   3.826
 5309SOL     OW26605   7.629   1.152   4.323
 5309SOL    HW126606   7.713   1.100   4.342
 5309SOL    HW226607   7.550   1.091   4.328
 5310SOL     OW26608   2.919   8.841   0.069
 5310SOL    HW126609   2.996   8.901   0.091
 5310SOL    HW226610   2.952   8.748   0.053
 5311SOL     OW26611   3.651   5.237   1.892
 5311SOL    HW126612   3.730   5.188   1.929
 5311SOL    HW226613   3.570   5.179   1.898
 5312SOL     OW26614   8.145   6.792   4.033
 5312SOL    HW126615   8.096   6.710   4.062
 5312SOL    HW226616   8.103   6.828   3.950
 5313SOL     OW26617   4.346   2.676   2.277
 5313SOL    HW126618   4.320   2.589   2.320
 5313SOL    HW226619   4.376   2.658   2.183
 5314SOL     OW26620   1.055   6.205   2.391
 5314SOL    HW126621   0.989   6.153   2.337
 5314SOL    HW226622   1.136   6.149   2.409
 5315SOL     OW26623   5.689   1.133   3.291
 5315SOL    HW126624   5.719   1.174   3.377
 5315SOL    HW226625   5.601   1.087   3.305
 5316SOL     OW26626   5.075   1.469   0.275
 5316SOL    HW126627   5.108   1.468   0.181
 5316SOL    HW226628   5.010   1.545   0.287
 5317SOL     OW26629   0.315   4.717   1.425
 5317SOL    HW126630   0.279   4.628   1.450
 5317SOL    HW226631   0.267   4.750   1.343
 5318SOL     OW26632   1.204   6.247   4.090
 5318SOL    HW126633   1.282   6.193   4.060
 5318SOL    HW226634   1.228   6.344   4.090
 5319SOL     OW26635   9.581   3.950   3.030
 5319SOL    HW126636   9.514   4.024   3.022
 5319SOL    HW226637   9.579   3.912   3.122
 5320SOL     OW26638   7.083   1.701   2.025
 5320SOL    HW126639   7.006   1.743   1.977
 5320SOL    HW226640   7.150   1.771   2.046
 5321SOL     OW26641   4.894   7.841   3.094
 5321SOL    HW126642   4.932   7.750   3.077
 5321SOL    HW226643   4.863   7.847   3.189
 5322SOL     OW26644   1.647   1.189   1.392
 5322SOL    HW126645   1.582   1.185   1.468
 5322SOL    HW226646   1.598   1.174   1.305
 5323SOL     OW26647   8.243   3.249   3.066
 5323SOL    HW126648   8.282   3.157   3.077
 5323SOL    HW226649   8.245   3.274   2.969
 5324SOL     OW26650   8.805   5.586   0.212
 5324SOL    HW126651   8.714   5.565   0.178
 5324SOL    HW226652   8.800   5.613   0.308
 5325SOL     OW26653   4.968   8.181   3.437
 5325SOL    HW126654   4.916   8.149   3.516
 5325SOL    HW226655   5.061   8.145   3.440
 5326SOL     OW26656   5.491   7.164   2.205
 5326SOL    HW126657   5.497   7.065   2.212
 5326SOL    HW226658   5.553   7.207   2.271
 5327SOL     OW26659   2.097   4.485   3.462
 5327SOL    HW126660   2.025   4.545   3.497
 5327SOL    HW226661   2.081   4.392   3.494
 5328SOL     OW26662   0.847   3.056   2.711
 5328SOL    HW126663   0.783   3.111   2.765
 5328SOL    HW226664   0.855   2.965   2.752
 5329SOL     OW26665   5.714   0.690   1.140
 5329SOL    HW126666   5.679   0.615   1.083
 5329SOL    HW226667   5.782   0.653   1.204
 5330SOL     OW26668   3.298   6.066   1.793
 5330SOL    HW126669   3.282   6.055   1.891
 5330SOL    HW226670   3.321   5.978   1.753
 5331SOL     OW26671   6.023   8.876   2.354
 5331SOL    HW126672   6.072   8.898   2.270
 5331SOL    HW226673   5.927   8.856   2.333
 5332SOL     OW26674   2.496   8.891   2.865
 5332SOL    HW126675   2.525   8.846   2.781
 5332SOL    HW226676   2.545   8.851   2.943
 5333SOL     OW26677   3.769   3.511   2.009
 5333SOL    HW126678   3.833   3.585   1.987
 5333SOL    HW226679   3.764   3.500   2.108
 5334SOL     OW26680   4.410   5.870   0.887
 5334SOL    HW126681   4.368   5.959   0.905
 5334SOL    HW226682   4.346   5.812   0.837
 5335SOL     OW26683   8.346   3.526   2.314
 5335SOL    HW126684   8.445   3.521   2.298
 5335SOL    HW226685   8.329   3.535   2.412
 5336SOL     OW26686   4.710   2.889   2.221
 5336SOL    HW126687   4.798   2.934   2.232
 5336SOL    HW226688   4.649   2.946   2.166
 5337SOL     OW26689   6.353   1.237   3.626
 5337SOL    HW126690   6.414   1.296   3.679
 5337SOL    HW226691   6.318   1.287   3.547
 5338SOL     OW26692   2.177   1.552   2.825
 5338SOL    HW126693   2.131   1.469   2.793
 5338SOL    HW226694   2.272   1.550   2.795
 5339SOL     OW26695   5.656   8.642   4.272
 5339SOL    HW126696   5.662   8.692   4.186
 5339SOL    HW226697   5.747   8.623   4.306
 5340SOL     OW26698   2.319   7.362   3.485
 5340SOL    HW126699   2.295   7.427   3.558
 5340SOL    HW226700   2.236   7.319   3.451
 5341SOL     OW26701   9.650   6.455   1.245
 5341SOL    HW126702   9.690   6.544   1.225
 5341SOL    HW226703   9.551   6.461   1.244
 5342SOL     OW26704   7.341   8.674   2.471
 5342SOL    HW126705   7.348   8.772   2.487
 5342SOL    HW226706   7.245   8.650   2.456
 5343SOL     OW26707   9.995   5.782   3.212
 5343SOL    HW126708   9.998   5.714   3.138
 5343SOL    HW226709   9.960   5.868   3.176
 5344SOL     OW26710   1.384   7.359   0.959
 5344SOL    HW126711   1.345   7.302   0.886
 5344SOL    HW226712   1.478   7.385   0.934
 5345SOL     OW26713   9.180   9.601   3.055
 5345SOL    HW126714   9.146   9.635   2.967
 5345SOL    HW226715   9.261   9.544   3.040
 5346SOL     OW26716   2.305   1.330   0.827
 5346SOL    HW126717   2.211   1.362   0.833
 5346SOL    HW226718   2.322   1.291   0.736
 5347SOL     OW26719   4.114   7.019   3.080
 5347SOL    HW126720   4.127   7.094   3.014
 5347SOL    HW226721   4.190   7.018   3.144
 5348SOL     OW26722   4.136   8.645   0.395
 5348SOL    HW126723   4.183   8.558   0.409
 5348SOL    HW226724   4.149   8.675   0.300
 5349SOL     OW26725   9.062   0.348   2.138
 5349SOL    HW126726   9.134   0.285   2.168
 5349SOL    HW226727   8.981   0.297   2.112
 5350SOL     OW26728   4.790   3.566   2.403
 5350SOL    HW126729   4.700   3.522   2.398
 5350SOL    HW226730   4.790   3.648   2.346
 5351SOL     OW26731   8.546   1.414   4.340
 5351SOL    HW126732   8.545   1.501   4.291
 5351SOL    HW226733   8.454   1.375   4.342
 5352SOL     OW26734   8.787   7.122   2.968
 5352SOL    HW126735   8.844   7.099   2.890
 5352SOL    HW226736   8.801   7.218   2.993
 5353SOL     OW26737   2.584   7.572   2.958
 5353SOL    HW126738   2.652   7.501   2.973
 5353SOL    HW226739   2.493   7.532   2.958
 5354SOL     OW26740   4.638   3.691   1.474
 5354SOL    HW126741   4.709   3.760   1.489
 5354SOL    HW226742   4.550   3.736   1.459
 5355SOL     OW26743   4.915   1.201   1.685
 5355SOL    HW126744   4.823   1.215   1.723
 5355SOL    HW226745   4.916   1.115   1.634
 5356SOL     OW26746   4.198   8.776   2.098
 5356SOL    HW126747   4.270   8.751   2.033
 5356SOL    HW226748   4.148   8.693   2.126
 5357SOL     OW26749   8.307   5.108   3.518
 5357SOL    HW126750   8.291   5.205   3.503
 5357SOL    HW226751   8.220   5.061   3.531
 5358SOL     OW26752   2.800   5.865   4.302
 5358SOL    HW126753   2.735   5.795   4.273
 5358SOL    HW226754   2.892   5.825   4.305
 5359SOL     OW26755   4.379   7.793   2.410
 5359SOL    HW126756   4.414   7.703   2.437
 5359SOL    HW226757   4.296   7.813   2.463
 5360SOL     OW26758   8.159   3.801   1.349
 5360SOL    HW126759   8.115   3.763   1.268
 5360SOL    HW226760   8.234   3.860   1.320
 5361SOL     OW26761   5.779   3.858   0.403
 5361SOL    HW126762   5.850   3.836   0.336
 5361SOL    HW226763   5.788   3.954   0.431
 5362SOL     OW26764   1.510   3.354   4.323
 5362SOL    HW126765   1.601   3.373   4.286
 5362SOL    HW226766   1.463   3.287   4.265
 5363SOL     OW26767   1.712   1.415   4.249
 5363SOL    HW126768   1.727   1.509   4.279
 5363SOL    HW226769   1.720   1.410   4.150
 5364SOL     OW26770   8.682   9.538   3.184
 5364SOL    HW126771   8.625   9.457   3.178
 5364SOL    HW226772   8.778   9.512   3.173
 5365SOL     OW26773   9.236   2.068   3.942
 5365SOL    HW126774   9.203   1.988   3.891
 5365SOL    HW226775   9.274   2.135   3.878
 5366SOL     OW26776   1.016   2.159   3.614
 5366SOL    HW126777   0.996   2.088   3.682
 5366SOL    HW226778   1.114   2.163   3.597
 5367SOL     OW26779   3.644   7.870   2.453
 5367SOL    HW126780   3.612   7.822   2.535
 5367SOL    HW226781   3.565   7.892   2.395
 5368SOL     OW26782   2.491   1.522   0.342
 5368SOL    HW126783   2.460   1.577   0.263
 5368SOL    HW226784   2.572   1.565   0.382
 5369SOL     OW26785   2.149   7.784   1.449
 5369SOL    HW126786   2.100   7.843   1.513
 5369SOL    HW226787   2.092   7.767   1.369
 5370SOL     OW26788   8.464   3.378   0.208
 5370SOL    HW126789   8.439   3.380   0.111
 5370SOL    HW226790   8.438   3.465   0.251
 5371SOL     OW26791   4.574   0.063   3.490
 5371SOL    HW126792   4.659   0.017   3.463
 5371SOL    HW226793   4.533   0.014   3.567
 5372SOL     OW26794   8.752   6.714   1.045
 5372SOL    HW126795   8.678   6.779   1.031
 5372SOL    HW226796   8.714   6.624   1.068
 5373SOL     OW26797   1.470   4.307   3.961
 5373SOL    HW126798   1.445   4.397   3.995
 5373SOL    HW226799   1.553   4.276   4.007
 5374SOL     OW26800   3.001   0.282   0.679
 5374SOL    HW126801   2.942   0.219   0.728
 5374SOL    HW226802   3.085   0.297   0.731
 5375SOL     OW26803   7.675   0.440   4.408
 5375SOL    HW126804   7.670   0.475   4.502
 5375SOL    HW226805   7.610   0.365   4.397
 5376SOL     OW26806   7.954   2.134   0.751
 5376SOL    HW126807   8.013   2.207   0.786
 5376SOL    HW226808   7.865   2.171   0.725
 5377SOL     OW26809   0.422   1.550   0.111
 5377SOL    HW126810   0.498   1.608   0.140
 5377SOL    HW226811   0.457   1.460   0.083
 5378SOL     OW26812   5.182   7.173   3.120
 5378SOL    HW126813   5.115   7.165   3.046
 5378SOL    HW226814   5.258   7.230   3.090
 5379SOL     OW26815   9.857   0.125   2.938
 5379SOL    HW126816   9.887   0.050   2.880
 5379SOL    HW226817   9.894   0.211   2.904
 5380SOL     OW26818   9.156   4.082   3.058
 5380SOL    HW126819   9.114   4.031   2.983
 5380SOL    HW226820   9.090   4.148   3.095
 5381SOL     OW26821   1.989   2.152   0.085
 5381SOL    HW126822   2.052   2.224   0.113
 5381SOL    HW226823   1.895   2.185   0.091
 5382SOL     OW26824   0.310   2.405   1.380
 5382SOL    HW126825   0.342   2.312   1.394
 5382SOL    HW226826   0.235   2.425   1.443
 5383SOL     OW26827   3.899   8.649   2.423
 5383SOL    HW126828   3.893   8.745   2.450
 5383SOL    HW226829   3.894   8.643   2.323
 5384SOL     OW26830   3.810   2.100   2.765
 5384SOL    HW126831   3.817   2.011   2.720
 5384SOL    HW226832   3.894   2.152   2.749
 5385SOL     OW26833   3.371   8.383   3.325
 5385SOL    HW126834   3.408   8.388   3.232
 5385SOL    HW226835   3.288   8.327   3.325
 5386SOL     OW26836   8.606   7.760   1.368
 5386SOL    HW126837   8.614   7.661   1.379
 5386SOL    HW226838   8.512   7.783   1.341
 5387SOL     OW26839   1.130   5.463   4.107
 5387SOL    HW126840   1.187   5.546   4.105
 5387SOL    HW226841   1.066   5.469   4.183
 5388SOL     OW26842   9.161   6.754   0.944
 5388SOL    HW126843   9.212   6.732   1.028
 5388SOL    HW226844   9.223   6.750   0.866
 5389SOL     OW26845   0.792   1.876   0.120
 5389SOL    HW126846   0.877   1.895   0.170
 5389SOL    HW226847   0.792   1.927   0.034
 5390SOL     OW26848   9.301   4.724   1.626
 5390SOL    HW126849   9.278   4.649   1.564
 5390SOL    HW226850   9.339   4.687   1.711
 5391SOL     OW26851   0.573   7.257   3.374
 5391SOL    HW126852   0.566   7.160   3.349
 5391SOL    HW226853   0.665   7.290   3.353
 5392SOL     OW26854   2.718   3.599   0.243
 5392SOL    HW126855   2.729   3.519   0.184
 5392SOL    HW226856   2.784   3.670   0.217
 5393SOL     OW26857   4.003   2.530   0.890
 5393SOL    HW126858   4.080   2.522   0.952
 5393SOL    HW226859   3.959   2.441   0.879
 5394SOL     OW26860   4.733   1.938   3.012
 5394SOL    HW126861   4.687   1.859   2.970
 5394SOL    HW226862   4.702   1.948   3.106
 5395SOL     OW26863   7.010   1.816   3.357
 5395SOL    HW126864   7.040   1.721   3.365
 5395SOL    HW226865   6.946   1.825   3.280
 5396SOL     OW26866   1.063   7.282   1.298
 5396SOL    HW126867   1.056   7.205   1.235
 5396SOL    HW226868   1.134   7.344   1.266
 5397SOL     OW26869   2.650   9.947   2.674
 5397SOL    HW126870   2.593   0.020   2.635
 5397SOL    HW226871   2.746   9.969   2.659
 5398SOL     OW26872   0.662   4.186   3.680
 5398SOL    HW126873   0.750   4.143   3.656
 5398SOL    HW226874   0.609   4.200   3.597
 5399SOL     OW26875   8.660   4.922   0.153
 5399SOL    HW126876   8.714   5.003   0.174
 5399SOL    HW226877   8.716   4.840   0.168
 5400SOL     OW26878   8.500   0.438   1.353
 5400SOL    HW126879   8.528   0.349   1.390
 5400SOL    HW226880   8.434   0.424   1.279
 5401SOL     OW26881   7.906   2.875   0.186
 5401SOL    HW126882   7.886   2.954   0.127
 5401SOL    HW226883   8.000   2.884   0.221
 5402SOL     OW26884   4.644   4.666   0.468
 5402SOL    HW126885   4.600   4.678   0.557
 5402SOL    HW226886   4.702   4.746   0.448
 5403SOL     OW26887   0.128   7.453   3.036
 5403SOL    HW126888   0.179   7.370   3.013
 5403SOL    HW226889   0.137   7.472   3.134
 5404SOL     OW26890   3.004   2.040   2.408
 5404SOL    HW126891   2.906   2.053   2.428
 5404SOL    HW226892   3.022   2.067   2.313
 5405SOL     OW26893   0.916   2.413   3.598
 5405SOL    HW126894   0.969   2.446   3.520
 5405SOL    HW226895   0.938   2.316   3.615
 5406SOL     OW26896   4.479   2.775   3.387
 5406SOL    HW126897   4.557   2.833   3.408
 5406SOL    HW226898   4.459   2.782   3.289
 5407SOL     OW26899   8.602   5.428   1.019
 5407SOL    HW126900   8.630   5.390   1.107
 5407SOL    HW226901   8.531   5.497   1.033
 5408SOL     OW26902   8.334   7.237   2.608
 5408SOL    HW126903   8.428   7.219   2.580
 5408SOL    HW226904   8.282   7.273   2.531
 5409SOL     OW26905   1.273   3.519   4.312
 5409SOL    HW126906   1.311   3.549   4.225
 5409SOL    HW226907   1.339   3.463   4.361
 5410SOL     OW26908   2.377   9.566   3.713
 5410SOL    HW126909   2.428   9.606   3.790
 5410SOL    HW226910   2.392   9.467   3.711
 5411SOL     OW26911   7.443   0.438   3.714
 5411SOL    HW126912   7.455   0.511   3.781
 5411SOL    HW226913   7.355   0.394   3.728
 5412SOL     OW26914   0.851   5.930   3.597
 5412SOL    HW126915   0.859   5.831   3.583
 5412SOL    HW226916   0.798   5.948   3.679
 5413SOL     OW26917   6.773   0.820   3.759
 5413SOL    HW126918   6.675   0.799   3.766
 5413SOL    HW226919   6.818   0.751   3.702
 5414SOL     OW26920   1.910   0.240   0.841
 5414SOL    HW126921   1.951   0.159   0.798
 5414SOL    HW226922   1.975   0.315   0.840
 5415SOL     OW26923   2.719   6.049   3.999
 5415SOL    HW126924   2.709   5.965   3.945
 5415SOL    HW226925   2.665   6.041   4.083
 5416SOL     OW26926   4.702   9.345   3.544
 5416SOL    HW126927   4.703   9.378   3.638
 5416SOL    HW226928   4.756   9.261   3.538
 5417SOL     OW26929   9.074   7.532   0.846
 5417SOL    HW126930   9.171   7.543   0.865
 5417SOL    HW226931   9.025   7.616   0.872
 5418SOL     OW26932   3.100   9.560   3.402
 5418SOL    HW126933   3.134   9.556   3.496
 5418SOL    HW226934   3.173   9.534   3.339
 5419SOL     OW26935   8.400   4.673   1.812
 5419SOL    HW126936   8.318   4.621   1.789
 5419SOL    HW226937   8.467   4.664   1.738
 5420SOL     OW26938   5.418   0.379   3.476
 5420SOL    HW126939   5.458   0.289   3.490
 5420SOL    HW226940   5.345   0.373   3.408
 5421SOL     OW26941   2.875   1.500   1.642
 5421SOL    HW126942   2.824   1.426   1.686
 5421SOL    HW226943   2.813   1.555   1.587
 5422SOL     OW26944   8.749   0.691   0.564
 5422SOL    HW126945   8.668   0.657   0.611
 5422SOL    HW226946   8.736   0.683   0.465
 5423SOL     OW26947   9.861   9.140   4.336
 5423SOL    HW126948   9.927   9.152   4.262
 5423SOL    HW226949   9.902   9.084   4.408
 5424SOL     OW26950   5.734   0.584   3.839
 5424SOL    HW126951   5.718   0.641   3.758
 5424SOL    HW226952   5.781   0.639   3.909
 5425SOL     OW26953   6.244   0.327   1.219
 5425SOL    HW126954   6.175   0.309   1.149
 5425SOL    HW226955   6.225   0.271   1.300
 5426SOL     OW26956   1.263   7.733   2.842
 5426SOL    HW126957   1.357   7.712   2.816
 5426SOL    HW226958   1.210   7.758   2.761
 5427SOL     OW26959   0.688   5.101   2.925
 5427SOL    HW126960   0.653   5.195   2.926
 5427SOL    HW226961   0.717   5.077   2.833
 5428SOL     OW26962   0.392   5.117   0.697
 5428SOL    HW126963   0.351   5.096   0.608
 5428SOL    HW226964   0.446   5.201   0.690
 5429SOL     OW26965   2.394   4.772   3.345
 5429SOL    HW126966   2.483   4.751   3.303
 5429SOL    HW226967   2.340   4.829   3.283
 5430SOL     OW26968   4.681   4.535   1.254
 5430SOL    HW126969   4.652   4.630   1.242
 5430SOL    HW226970   4.617   4.488   1.314
 5431SOL     OW26971   3.893   2.126   3.315
 5431SOL    HW126972   3.905   2.116   3.216
 5431SOL    HW226973   3.982   2.119   3.360
 5432SOL     OW26974   1.202   9.906   1.993
 5432SOL    HW126975   1.268   9.976   2.019
 5432SOL    HW226976   1.249   9.819   1.979
 5433SOL     OW26977   3.190   4.912   2.582
 5433SOL    HW126978   3.149   4.937   2.495
 5433SOL    HW226979   3.281   4.874   2.567
 5434SOL     OW26980   7.198   0.212   1.329
 5434SOL    HW126981   7.166   0.123   1.361
 5434SOL    HW226982   7.250   0.200   1.244
 5435SOL     OW26983   4.496   1.264   3.013
 5435SOL    HW126984   4.545   1.209   3.080
 5435SOL    HW226985   4.561   1.313   2.955
 5436SOL     OW26986   0.915   7.969   1.528
 5436SOL    HW126987   0.941   8.064   1.516
 5436SOL    HW226988   0.867   7.958   1.614
 5437SOL     OW26989   8.595   4.359   1.960
 5437SOL    HW126990   8.578   4.453   1.990
 5437SOL    HW226991   8.627   4.360   1.865
 5438SOL     OW26992   2.766   7.351   2.963
 5438SOL    HW126993   2.807   7.261   2.980
 5438SOL    HW226994   2.836   7.414   2.930
 5439SOL     OW26995   3.928   2.107   3.038
 5439SOL    HW126996   3.985   2.029   3.013
 5439SOL    HW226997   3.861   2.124   2.966
 5440SOL     OW26998   8.443   4.655   3.981
 5440SOL    HW126999   8.359   4.691   3.941
 5440SOL    HW227000   8.494   4.604   3.912
 5441SOL     OW27001   5.862   7.933   1.840
 5441SOL    HW127002   5.780   7.923   1.783
 5441SOL    HW227003   5.841   7.994   1.917
 5442SOL     OW27004   9.491   9.106   3.355
 5442SOL    HW127005   9.410   9.050   3.340
 5442SOL    HW227006   9.521   9.098   3.450
 5443SOL     OW27007   2.079   5.210   1.665
 5443SOL    HW127008   2.060   5.112   1.670
 5443SOL    HW227009   2.178   5.225   1.658
 5444SOL     OW27010   7.192   9.226   3.752
 5444SOL    HW127011   7.199   9.169   3.834
 5444SOL    HW227012   7.152   9.315   3.778
 5445SOL     OW27013   8.743   7.807   3.187
 5445SOL    HW127014   8.840   7.783   3.180
 5445SOL    HW227015   8.728   7.861   3.270
 5446SOL     OW27016   8.462   7.902   3.440
 5446SOL    HW127017   8.422   7.866   3.355
 5446SOL    HW227018   8.560   7.914   3.428
 5447SOL     OW27019   0.281   7.735   2.156
 5447SOL    HW127020   0.274   7.640   2.189
 5447SOL    HW227021   0.303   7.795   2.232
 5448SOL     OW27022   8.800   4.791   0.472
 5448SOL    HW127023   8.780   4.888   0.463
 5448SOL    HW227024   8.804   4.748   0.381
 5449SOL     OW27025   4.973   3.317   1.763
 5449SOL    HW127026   5.056   3.362   1.730
 5449SOL    HW227027   4.927   3.376   1.829
 5450SOL     OW27028   7.685   1.530   2.860
 5450SOL    HW127029   7.610   1.486   2.810
 5450SOL    HW227030   7.649   1.604   2.916
 5451SOL     OW27031   6.612   8.349   3.749
 5451SOL    HW127032   6.675   8.408   3.799
 5451SOL    HW227033   6.518   8.372   3.773
 5452SOL     OW27034   1.677   8.399   1.023
 5452SOL    HW127035   1.759   8.353   0.990
 5452SOL    HW227036   1.700   8.454   1.104
 5453SOL     OW27037   2.389   4.325   1.976
 5453SOL    HW127038   2.430   4.400   1.924
 5453SOL    HW227039   2.461   4.271   2.019
 5454SOL     OW27040   2.212   7.127   1.972
 5454SOL    HW127041   2.225   7.194   2.045
 5454SOL    HW227042   2.115   7.120   1.950
 5455SOL     OW27043   1.533   7.168   3.052
 5455SOL    HW127044   1.512   7.265   3.062
 5455SOL    HW227045   1.484   7.131   2.973
 5456SOL     OW27046   7.606   4.558   0.428
 5456SOL    HW127047   7.688   4.615   0.431
 5456SOL    HW227048   7.600   4.502   0.510
 5457SOL     OW27049   8.130   7.676   3.159
 5457SOL    HW127050   8.047   7.696   3.107
 5457SOL    HW227051   8.106   7.657   3.254
 5458SOL     OW27052   0.278   9.938   1.371
 5458SOL    HW127053   0.242   0.003   1.438
 5458SOL    HW227054   0.207   9.917   1.304
 5459SOL     OW27055   4.671   1.574   0.567
 5459SOL    HW127056   4.641   1.626   0.647
 5459SOL    HW227057   4.762   1.536   0.585
 5460SOL     OW27058   2.204   6.984   3.133
 5460SOL    HW127059   2.135   6.940   3.191
 5460SOL    HW227060   2.159   7.046   3.069
 5461SOL     OW27061   3.089   2.157   3.562
 5461SOL    HW127062   3.156   2.095   3.601
 5461SOL    HW227063   3.023   2.105   3.507
 5462SOL     OW27064   9.625   8.588   0.317
 5462SOL    HW127065   9.540   8.586   0.370
 5462SOL    HW227066   9.639   8.500   0.273
 5463SOL     OW27067   8.722   3.626   0.429
 5463SOL    HW127068   8.648   3.570   0.466
 5463SOL    HW227069   8.750   3.694   0.496
 5464SOL     OW27070   6.369   0.797   4.347
 5464SOL    HW127071   6.432   0.721   4.331
 5464SOL    HW227072   6.412   0.863   4.409
 5465SOL     OW27073   0.292   0.760   2.624
 5465SOL    HW127074   0.307   0.670   2.583
 5465SOL    HW227075   0.357   0.775   2.698
 5466SOL     OW27076   2.635   4.493   1.510
 5466SOL    HW127077   2.571   4.454   1.444
 5466SOL    HW227078   2.646   4.430   1.587
 5467SOL     OW27079   3.549   0.424   0.693
 5467SOL    HW127080   3.514   0.484   0.620
 5467SOL    HW227081   3.510   0.333   0.682
 5468SOL     OW27082   8.978   2.797   0.598
 5468SOL    HW127083   8.905   2.866   0.591
 5468SOL    HW227084   9.007   2.788   0.693
 5469SOL     OW27085   1.754   3.742   3.236
 5469SOL    HW127086   1.722   3.805   3.165
 5469SOL    HW227087   1.852   3.754   3.249
 5470SOL     OW27088   2.750   3.457   3.610
 5470SOL    HW127089   2.740   3.515   3.529
 5470SOL    HW227090   2.661   3.440   3.651
 5471SOL     OW27091   9.683   4.622   4.103
 5471SOL    HW127092   9.765   4.677   4.088
 5471SOL    HW227093   9.666   4.614   4.201
 5472SOL     OW27094   8.270   1.211   2.501
 5472SOL    HW127095   8.272   1.237   2.405
 5472SOL    HW227096   8.277   1.111   2.509
 5473SOL     OW27097   2.944   6.760   0.410
 5473SOL    HW127098   2.869   6.722   0.463
 5473SOL    HW227099   2.916   6.768   0.314
 5474SOL     OW27100   0.399   0.855   3.786
 5474SOL    HW127101   0.447   0.890   3.866
 5474SOL    HW227102   0.464   0.806   3.727
 5475SOL     OW27103   3.034   5.064   3.702
 5475SOL    HW127104   2.993   4.998   3.764
 5475SOL    HW227105   3.002   5.047   3.609
 5476SOL     OW27106   7.355   4.181   0.817
 5476SOL    HW127107   7.367   4.152   0.912
 5476SOL    HW227108   7.414   4.126   0.758
 5477SOL     OW27109   7.384   6.217   2.587
 5477SOL    HW127110   7.307   6.206   2.524
 5477SOL    HW227111   7.423   6.308   2.577
 5478SOL     OW27112   1.307   5.740   3.641
 5478SOL    HW127113   1.383   5.771   3.585
 5478SOL    HW227114   1.241   5.815   3.652
 5479SOL     OW27115   3.371   3.150   0.185
 5479SOL    HW127116   3.354   3.235   0.235
 5479SOL    HW227117   3.285   3.109   0.157
 5480SOL     OW27118   9.240   6.711   4.031
 5480SOL    HW127119   9.323   6.765   4.017
 5480SOL    HW227120   9.265   6.616   4.047
 5481SOL     OW27121   4.505   5.069   1.567
 5481SOL    HW127122   4.503   5.115   1.656
 5481SOL    HW227123   4.523   5.136   1.495
 5482SOL     OW27124   9.955   0.335   0.494
 5482SOL    HW127125   0.052   0.355   0.509
 5482SOL    HW227126   9.909   0.324   0.582
 5483SOL     OW27127   1.666   8.520   0.283
 5483SOL    HW127128   1.748   8.498   0.229
 5483SOL    HW227129   1.605   8.441   0.284
 5484SOL     OW27130   2.187   9.392   4.281
 5484SOL    HW127131   2.151   9.299   4.268
 5484SOL    HW227132   2.286   9.391   4.271
 5485SOL     OW27133   2.119   9.219   0.833
 5485SOL    HW127134   2.028   9.232   0.872
 5485SOL    HW227135   2.183   9.285   0.873
 5486SOL     OW27136   1.792   7.970   1.784
 5486SOL    HW127137   1.786   7.940   1.879
 5486SOL    HW227138   1.734   8.050   1.770
 5487SOL     OW27139   1.767   5.019   3.022
 5487SOL    HW127140   1.832   4.957   2.978
 5487SOL    HW227141   1.812   5.066   3.098
 5488SOL     OW27142   1.525   4.892   3.480
 5488SOL    HW127143   1.533   4.970   3.542
 5488SOL    HW227144   1.616   4.861   3.453
 5489SOL     OW27145   4.022   4.323   1.145
 5489SOL    HW127146   3.999   4.290   1.236
 5489SOL    HW227147   4.117   4.300   1.124
 5490SOL     OW27148   2.591   8.177   1.264
 5490SOL    HW127149   2.647   8.226   1.197
 5490SOL    HW227150   2.546   8.099   1.221
 5491SOL     OW27151   2.594   5.320   3.539
 5491SOL    HW127152   2.586   5.221   3.550
 5491SOL    HW227153   2.581   5.345   3.443
 5492SOL     OW27154   1.447   8.081   3.622
 5492SOL    HW127155   1.467   8.085   3.524
 5492SOL    HW227156   1.406   8.168   3.651
 5493SOL     OW27157   8.331   3.878   0.994
 5493SOL    HW127158   8.274   3.947   0.948
 5493SOL    HW227159   8.425   3.912   1.000
 5494SOL     OW27160   6.051   0.671   2.576
 5494SOL    HW127161   6.139   0.625   2.567
 5494SOL    HW227162   6.065   0.763   2.612
 5495SOL     OW27163   5.719   0.901   1.784
 5495SOL    HW127164   5.768   0.817   1.760
 5495SOL    HW227165   5.716   0.962   1.705
 5496SOL     OW27166   2.055   9.617   4.196
 5496SOL    HW127167   1.963   9.590   4.167
 5496SOL    HW227168   2.106   9.536   4.225
 5497SOL     OW27169   8.572   4.531   3.774
 5497SOL    HW127170   8.561   4.449   3.718
 5497SOL    HW227171   8.586   4.610   3.715
 5498SOL     OW27172   7.858   0.214   0.388
 5498SOL    HW127173   7.802   0.261   0.456
 5498SOL    HW227174   7.925   0.277   0.349
 5499SOL     OW27175   8.434   5.221   3.125
 5499SOL    HW127176   8.409   5.180   3.037
 5499SOL    HW227177   8.451   5.148   3.191
 5500SOL     OW27178   8.435   6.595   4.072
 5500SOL    HW127179   8.440   6.693   4.092
 5500SOL    HW227180   8.367   6.552   4.131
 5501SOL     OW27181   5.687   7.470   1.549
 5501SOL    HW127182   5.613   7.535   1.568
 5501SOL    HW227183   5.772   7.520   1.532
 5502SOL     OW27184   2.520   6.067   0.894
 5502SOL    HW127185   2.468   6.007   0.834
 5502SOL    HW227186   2.539   6.153   0.847
 5503SOL     OW27187   7.754   3.521   0.342
 5503SOL    HW127188   7.678   3.476   0.389
 5503SOL    HW227189   7.832   3.530   0.404
 5504SOL     OW27190   2.148   8.477   0.603
 5504SOL    HW127191   2.052   8.484   0.630
 5504SOL    HW227192   2.174   8.560   0.553
 5505SOL     OW27193   5.467   0.528   1.420
 5505SOL    HW127194   5.501   0.573   1.502
 5505SOL    HW227195   5.422   0.595   1.361
 5506SOL     OW27196   9.437   8.302   1.926
 5506SOL    HW127197   9.392   8.262   1.847
 5506SOL    HW227198   9.385   8.281   2.009
 5507SOL     OW27199   1.288   1.266   3.836
 5507SOL    HW127200   1.272   1.173   3.802
 5507SOL    HW227201   1.221   1.329   3.796
 5508SOL     OW27202   7.959   0.854   2.556
 5508SOL    HW127203   8.001   0.831   2.468
 5508SOL    HW227204   7.972   0.951   2.575
 5509SOL     OW27205   3.080   5.462   0.305
 5509SOL    HW127206   3.113   5.473   0.399
 5509SOL    HW227207   3.049   5.550   0.270
 5510SOL     OW27208   2.332   4.920   3.572
 5510SOL    HW127209   2.345   4.860   3.494
 5510SOL    HW227210   2.236   4.947   3.578
 5511SOL     OW27211   7.376   8.267   3.434
 5511SOL    HW127212   7.312   8.244   3.507
 5511SOL    HW227213   7.418   8.356   3.453
 5512SOL     OW27214   8.450   8.071   4.061
 5512SOL    HW127215   8.402   8.056   4.148
 5512SOL    HW227216   8.411   8.011   3.991
 5513SOL     OW27217   2.213   1.784   0.037
 5513SOL    HW127218   2.186   1.805   5.577
 5513SOL    HW227219   2.139   1.735   0.083
 5514SOL     OW27220   0.388   0.213   2.671
 5514SOL    HW127221   0.380   0.303   2.715
 5514SOL    HW227222   0.334   0.146   2.721
 5515SOL     OW27223   3.447   2.643   2.765
 5515SOL    HW127224   3.492   2.565   2.721
 5515SOL    HW227225   3.366   2.611   2.815
 5516SOL     OW27226   8.377   1.189   0.373
 5516SOL    HW127227   8.278   1.177   0.380
 5516SOL    HW227228   8.420   1.101   0.356
 5517SOL     OW27229   3.055   0.546   1.058
 5517SOL    HW127230   3.056   0.611   0.981
 5517SOL    HW227231   3.146   0.543   1.099
 5518SOL     OW27232   1.705   0.151   1.001
 5518SOL    HW127233   1.782   0.181   0.945
 5518SOL    HW227234   1.646   0.229   1.021
 5519SOL     OW27235   1.651   0.258   3.320
 5519SOL    HW127236   1.670   0.252   3.418
 5519SOL    HW227237   1.728   0.220   3.269
 5520SOL     OW27238   6.310   9.180   4.123
 5520SOL    HW127239   6.270   9.264   4.160
 5520SOL    HW227240   6.408   9.177   4.146
 5521SOL     OW27241   1.195   0.582   4.217
 5521SOL    HW127242   1.200   0.615   4.123
 5521SOL    HW227243   1.121   0.515   4.225
 5522SOL     OW27244   9.275   8.195   0.737
 5522SOL    HW127245   9.234   8.165   0.824
 5522SOL    HW227246   9.202   8.220   0.673
 5523SOL     OW27247   3.436   1.998   2.249
 5523SOL    HW127248   3.401   2.055   2.175
 5523SOL    HW227249   3.457   2.056   2.328
 5524SOL     OW27250   9.126   6.658   3.234
 5524SOL    HW127251   9.094   6.752   3.242
 5524SOL    HW227252   9.174   6.631   3.317
 5525SOL     OW27253   9.016   4.200   0.613
 5525SOL    HW127254   9.033   4.299   0.615
 5525SOL    HW227255   8.982   4.170   0.703
 5526SOL     OW27256   4.007   5.322   1.887
 5526SOL    HW127257   4.085   5.272   1.852
 5526SOL    HW227258   3.947   5.259   1.937
 5527SOL     OW27259   1.605   6.726   2.513
 5527SOL    HW127260   1.514   6.689   2.530
 5527SOL    HW227261   1.598   6.804   2.451
 5528SOL     OW27262   3.396   8.408   1.677
 5528SOL    HW127263   3.383   8.466   1.596
 5528SOL    HW227264   3.307   8.382   1.714
 5529SOL     OW27265   2.859   3.133   4.030
 5529SOL    HW127266   2.853   3.212   3.969
 5529SOL    HW227267   2.769   3.093   4.042
 5530SOL     OW27268   8.211   1.203   3.026
 5530SOL    HW127269   8.270   1.205   2.946
 5530SOL    HW227270   8.253   1.257   3.099
 5531SOL     OW27271   5.788   7.599   2.916
 5531SOL    HW127272   5.778   7.561   2.824
 5531SOL    HW227273   5.884   7.590   2.945
 5532SOL     OW27274   8.070   9.515   2.380
 5532SOL    HW127275   8.072   9.536   2.477
 5532SOL    HW227276   8.026   9.591   2.331
 5533SOL     OW27277   6.990   4.053   0.044
 5533SOL    HW127278   6.928   4.127   0.068
 5533SOL    HW227279   6.946   3.965   0.063
 5534SOL     OW27280   6.272   7.625   3.398
 5534SOL    HW127281   6.347   7.605   3.462
 5534SOL    HW227282   6.238   7.717   3.414
 5535SOL     OW27283   6.644   8.506   2.145
 5535SOL    HW127284   6.620   8.580   2.207
 5535SOL    HW227285   6.706   8.442   2.191
 5536SOL     OW27286   8.249   4.847   2.625
 5536SOL    HW127287   8.177   4.916   2.636
 5536SOL    HW227288   8.298   4.864   2.539
 5537SOL     OW27289   8.662   8.660   3.391
 5537SOL    HW127290   8.634   8.652   3.487
 5537SOL    HW227291   8.658   8.570   3.348
 5538SOL     OW27292   2.408   6.267   2.357
 5538SOL    HW127293   2.499   6.309   2.348
 5538SOL    HW227294   2.379   6.233   2.268
 5539SOL     OW27295   7.200   7.248   3.024
 5539SOL    HW127296   7.147   7.216   2.946
 5539SOL    HW227297   7.156   7.329   3.064
 5540SOL     OW27298   6.002   0.358   2.121
 5540SOL    HW127299   6.039   0.353   2.214
 5540SOL    HW227300   5.935   0.432   2.116
 5541SOL     OW27301   3.795   1.117   2.614
 5541SOL    HW127302   3.837   1.043   2.666
 5541SOL    HW227303   3.767   1.083   2.524
 5542SOL     OW27304   4.558   2.312   3.599
 5542SOL    HW127305   4.576   2.358   3.686
 5542SOL    HW227306   4.563   2.379   3.525
 5543SOL     OW27307   8.132   2.307   1.901
 5543SOL    HW127308   8.137   2.310   2.000
 5543SOL    HW227309   8.135   2.400   1.864
 5544SOL     OW27310   0.776   0.090   3.267
 5544SOL    HW127311   0.807   0.179   3.301
 5544SOL    HW227312   0.700   0.058   3.323
 5545SOL     OW27313   0.654   4.266   0.840
 5545SOL    HW127314   0.660   4.362   0.813
 5545SOL    HW227315   0.588   4.257   0.915
 5546SOL     OW27316   9.951   3.541   1.083
 5546SOL    HW127317   9.891   3.620   1.099
 5546SOL    HW227318   0.026   3.567   1.022
 5547SOL     OW27319   3.711   2.370   2.100
 5547SOL    HW127320   3.792   2.408   2.055
 5547SOL    HW227321   3.679   2.290   2.049
 5548SOL     OW27322   9.011   8.822   0.461
 5548SOL    HW127323   8.936   8.809   0.397
 5548SOL    HW227324   9.021   8.919   0.481
 5549SOL     OW27325   9.111   3.925   3.454
 5549SOL    HW127326   9.085   3.839   3.410
 5549SOL    HW227327   9.179   3.972   3.398
 5550SOL     OW27328   3.411   0.168   2.396
 5550SOL    HW127329   3.373   0.250   2.441
 5550SOL    HW227330   3.372   0.086   2.438
 5551SOL     OW27331   2.908   8.889   1.929
 5551SOL    HW127332   2.961   8.822   1.982
 5551SOL    HW227333   2.971   8.955   1.887
 5552SOL     OW27334   2.705   0.645   4.344
 5552SOL    HW127335   2.645   0.572   4.375
 5552SOL    HW227336   2.655   0.732   4.346
 5553SOL     OW27337   0.882   3.448   2.482
 5553SOL    HW127338   0.969   3.446   2.432
 5553SOL    HW227339   0.839   3.358   2.478
 5554SOL     OW27340   2.643   8.218   0.642
 5554SOL    HW127341   2.704   8.213   0.564
 5554SOL    HW227342   2.683   8.168   0.719
 5555SOL     OW27343   8.118   8.784   0.769
 5555SOL    HW127344   8.172   8.754   0.691
 5555SOL    HW227345   8.169   8.853   0.820
 5556SOL     OW27346   9.212   5.724   4.341
 5556SOL    HW127347   9.248   5.770   4.422
 5556SOL    HW227348   9.210   5.788   4.264
 5557SOL     OW27349   8.700   3.038   1.114
 5557SOL    HW127350   8.774   3.095   1.150
 5557SOL    HW227351   8.729   2.942   1.116
 5558SOL     OW27352   0.518   4.256   2.640
 5558SOL    HW127353   0.548   4.161   2.644
 5558SOL    HW227354   0.466   4.271   2.556
 5559SOL     OW27355   0.245   4.365   1.634
 5559SOL    HW127356   0.223   4.267   1.631
 5559SOL    HW227357   0.336   4.377   1.674
 5560SOL     OW27358   4.170   3.472   3.592
 5560SOL    HW127359   4.142   3.397   3.532
 5560SOL    HW227360   4.136   3.455   3.685
 5561SOL     OW27361   8.905   8.227   3.502
 5561SOL    HW127362   8.813   8.215   3.539
 5561SOL    HW227363   8.953   8.139   3.503
 5562SOL     OW27364   1.975   2.452   1.314
 5562SOL    HW127365   2.017   2.421   1.229
 5562SOL    HW227366   2.046   2.464   1.384
 5563SOL     OW27367   8.269   7.587   3.589
 5563SOL    HW127368   8.318   7.530   3.523
 5563SOL    HW227369   8.331   7.654   3.628
 5564SOL     OW27370   6.531   9.203   1.182
 5564SOL    HW127371   6.511   9.105   1.180
 5564SOL    HW227372   6.508   9.243   1.094
 5565SOL     OW27373   5.414   0.260   4.384
 5565SOL    HW127374   5.354   0.287   4.460
 5565SOL    HW227375   5.366   0.194   4.325
 5566SOL     OW27376   9.665   5.053   3.064
 5566SOL    HW127377   9.712   5.093   3.143
 5566SOL    HW227378   9.566   5.063   3.075
 5567SOL     OW27379   5.032   2.961   0.138
 5567SOL    HW127380   4.955   2.975   0.076
 5567SOL    HW227381   5.108   3.020   0.111
 5568SOL     OW27382   9.413   9.471   0.442
 5568SOL    HW127383   9.439   9.376   0.427
 5568SOL    HW227384   9.487   9.520   0.487
 5569SOL     OW27385   8.594   0.981   3.701
 5569SOL    HW127386   8.568   0.987   3.604
 5569SOL    HW227387   8.521   0.936   3.752
 5570SOL     OW27388   0.641   1.021   0.250
 5570SOL    HW127389   0.546   1.003   0.224
 5570SOL    HW227390   0.651   1.119   0.270
 5571SOL     OW27391   1.444   1.948   3.246
 5571SOL    HW127392   1.464   2.044   3.226
 5571SOL    HW227393   1.357   1.941   3.295
 5572SOL     OW27394   9.588   7.935   3.593
 5572SOL    HW127395   9.659   7.923   3.663
 5572SOL    HW227396   9.596   8.026   3.553
 5573SOL     OW27397   3.764   8.633   4.167
 5573SOL    HW127398   3.728   8.581   4.090
 5573SOL    HW227399   3.710   8.716   4.180
 5574SOL     OW27400   7.055   9.912   1.857
 5574SOL    HW127401   6.964   9.894   1.820
 5574SOL    HW227402   7.048   9.963   1.942
 5575SOL     OW27403   2.729   2.467   0.678
 5575SOL    HW127404   2.674   2.527   0.736
 5575SOL    HW227405   2.669   2.419   0.613
 5576SOL     OW27406   9.087   0.975   0.934
 5576SOL    HW127407   9.097   0.876   0.948
 5576SOL    HW227408   9.022   1.011   1.001
 5577SOL     OW27409   2.569   6.290   1.895
 5577SOL    HW127410   2.590   6.371   1.950
 5577SOL    HW227411   2.497   6.312   1.830
 5578SOL     OW27412   4.016   9.297   1.423
 5578SOL    HW127413   3.968   9.245   1.494
 5578SOL    HW227414   4.114   9.279   1.429
 5579SOL     OW27415   3.219   6.505   1.892
 5579SOL    HW127416   3.269   6.564   1.828
 5579SOL    HW227417   3.184   6.425   1.843
 5580SOL     OW27418   4.762   5.840   1.439
 5580SOL    HW127419   4.768   5.935   1.470
 5580SOL    HW227420   4.800   5.833   1.347
 5581SOL     OW27421   1.504   9.270   3.073
 5581SOL    HW127422   1.451   9.222   3.143
 5581SOL    HW227423   1.539   9.356   3.111
 5582SOL     OW27424   8.214   9.924   1.042
 5582SOL    HW127425   8.134   9.901   0.986
 5582SOL    HW227426   8.207   9.876   1.130
 5583SOL     OW27427   1.678   1.094   2.205
 5583SOL    HW127428   1.588   1.127   2.177
 5583SOL    HW227429   1.734   1.172   2.234
 5584SOL     OW27430   0.620   1.197   4.320
 5584SOL    HW127431   0.642   1.238   4.409
 5584SOL    HW227432   0.525   1.166   4.320
 5585SOL     OW27433   8.848   2.703   1.476
 5585SOL    HW127434   8.918   2.764   1.513
 5585SOL    HW227435   8.891   2.633   1.419
 5586SOL     OW27436   3.613   2.884   0.436
 5586SOL    HW127437   3.538   2.908   0.497
 5586SOL    HW227438   3.596   2.793   0.397
 5587SOL     OW27439   5.465   8.771   3.643
 5587SOL    HW127440   5.431   8.683   3.676
 5587SOL    HW227441   5.444   8.782   3.546
 5588SOL     OW27442   2.521   7.000   2.781
 5588SOL    HW127443   2.562   6.924   2.831
 5588SOL    HW227444   2.450   6.965   2.719
 5589SOL     OW27445   2.308   2.045   3.528
 5589SOL    HW127446   2.377   2.109   3.495
 5589SOL    HW227447   2.351   1.955   3.540
 5590SOL     OW27448   2.003   8.894   2.978
 5590SOL    HW127449   1.927   8.943   2.935
 5590SOL    HW227450   2.081   8.957   2.989
 5591SOL     OW27451   3.110   1.826   0.962
 5591SOL    HW127452   3.133   1.865   1.051
 5591SOL    HW227453   3.180   1.759   0.935
 5592SOL     OW27454   5.969   3.817   0.202
 5592SOL    HW127455   5.916   3.755   0.144
 5592SOL    HW227456   6.056   3.774   0.226
 5593SOL     OW27457   1.755   2.619   1.336
 5593SOL    HW127458   1.837   2.561   1.328
 5593SOL    HW227459   1.782   2.714   1.346
 5594SOL     OW27460   9.190   5.560   2.752
 5594SOL    HW127461   9.278   5.557   2.799
 5594SOL    HW227462   9.152   5.467   2.747
 5595SOL     OW27463   9.331   7.994   0.372
 5595SOL    HW127464   9.264   8.064   0.347
 5595SOL    HW227465   9.295   7.904   0.349
 5596SOL     OW27466   7.462   0.438   1.749
 5596SOL    HW127467   7.409   0.390   1.679
 5596SOL    HW227468   7.408   0.513   1.787
 5597SOL     OW27469   9.156   3.621   1.987
 5597SOL    HW127470   9.080   3.558   2.001
 5597SOL    HW227471   9.155   3.656   1.893
 5598SOL     OW27472   9.876   2.248   2.582
 5598SOL    HW127473   9.883   2.290   2.492
 5598SOL    HW227474   9.928   2.163   2.583
 5599SOL     OW27475   9.549   7.653   3.643
 5599SOL    HW127476   9.547   7.745   3.603
 5599SOL    HW227477   9.637   7.611   3.626
 5600SOL     OW27478   1.227   2.162   0.169
 5600SOL    HW127479   1.133   2.182   0.195
 5600SOL    HW227480   1.236   2.165   0.070
 5601SOL     OW27481   0.604   6.699   0.978
 5601SOL    HW127482   0.699   6.668   0.973
 5601SOL    HW227483   0.599   6.796   0.955
 5602SOL     OW27484   4.553   7.860   3.266
 5602SOL    HW127485   4.504   7.802   3.331
 5602SOL    HW227486   4.652   7.852   3.280
 5603SOL     OW27487   2.224   2.460   0.574
 5603SOL    HW127488   2.170   2.392   0.525
 5603SOL    HW227489   2.202   2.551   0.539
 5604SOL     OW27490   8.971   0.131   1.514
 5604SOL    HW127491   8.897   0.085   1.563
 5604SOL    HW227492   8.963   0.113   1.416
 5605SOL     OW27493   3.007   7.428   3.460
 5605SOL    HW127494   2.920   7.462   3.498
 5605SOL    HW227495   2.987   7.364   3.385
 5606SOL     OW27496   3.938   9.158   3.732
 5606SOL    HW127497   3.893   9.095   3.668
 5606SOL    HW227498   3.897   9.148   3.822
 5607SOL     OW27499   3.096   0.901   4.302
 5607SOL    HW127500   3.022   0.847   4.261
 5607SOL    HW227501   3.075   0.998   4.290
 5608SOL     OW27502   8.818   8.883   1.955
 5608SOL    HW127503   8.884   8.934   2.010
 5608SOL    HW227504   8.753   8.837   2.016
 5609SOL     OW27505   3.654   0.212   2.949
 5609SOL    HW127506   3.614   0.215   2.858
 5609SOL    HW227507   3.654   0.303   2.989
 5610SOL     OW27508   9.459   9.857   3.558
 5610SOL    HW127509   9.437   9.768   3.517
 5610SOL    HW227510   9.543   9.892   3.517
 5611SOL     OW27511   0.946   8.270   1.781
 5611SOL    HW127512   0.994   8.353   1.813
 5611SOL    HW227513   0.918   8.216   1.861
 5612SOL     OW27514   1.200   7.181   3.318
 5612SOL    HW127515   1.197   7.082   3.305
 5612SOL    HW227516   1.261   7.204   3.394
 5613SOL     OW27517   2.628   9.177   0.131
 5613SOL    HW127518   2.530   9.176   0.109
 5613SOL    HW227519   2.642   9.224   0.218
 5614SOL     OW27520   0.718   1.041   3.437
 5614SOL    HW127521   0.656   1.051   3.515
 5614SOL    HW227522   0.732   1.130   3.394
 5615SOL     OW27523   1.554   1.290   0.400
 5615SOL    HW127524   1.579   1.310   0.305
 5615SOL    HW227525   1.476   1.347   0.427
 5616SOL     OW27526   2.634   4.192   3.777
 5616SOL    HW127527   2.590   4.251   3.710
 5616SOL    HW227528   2.644   4.242   3.864
 5617SOL     OW27529   8.212   0.756   0.224
 5617SOL    HW127530   8.236   0.848   0.193
 5617SOL    HW227531   8.114   0.742   0.213
 5618SOL     OW27532   3.316   6.741   4.153
 5618SOL    HW127533   3.233   6.740   4.209
 5618SOL    HW227534   3.315   6.822   4.095
 5619SOL     OW27535   2.924   5.454   0.642
 5619SOL    HW127536   2.869   5.371   0.649
 5619SOL    HW227537   2.865   5.531   0.615
 5620SOL     OW27538   2.760   3.719   2.329
 5620SOL    HW127539   2.686   3.741   2.266
 5620SOL    HW227540   2.844   3.763   2.297
 5621SOL     OW27541   0.330   4.801   3.976
 5621SOL    HW127542   0.389   4.720   3.983
 5621SOL    HW227543   0.324   4.829   3.881
 5622SOL     OW27544   8.317   3.835   0.597
 5622SOL    HW127545   8.372   3.913   0.626
 5622SOL    HW227546   8.272   3.857   0.511
 5623SOL     OW27547   4.179   8.701   0.134
 5623SOL    HW127548   4.260   8.676   0.081
 5623SOL    HW227549   4.148   8.793   0.108
 5624SOL     OW27550   5.399   8.501   2.079
 5624SOL    HW127551   5.400   8.595   2.114
 5624SOL    HW227552   5.370   8.439   2.153
 5625SOL     OW27553   1.484   1.977   3.617
 5625SOL    HW127554   1.555   1.999   3.550
 5625SOL    HW227555   1.469   1.879   3.620
 5626SOL     OW27556   8.890   9.481   4.059
 5626SOL    HW127557   8.933   9.494   4.148
 5626SOL    HW227558   8.792   9.464   4.071
 5627SOL     OW27559   1.200   7.201   2.366
 5627SOL    HW127560   1.143   7.120   2.378
 5627SOL    HW227561   1.184   7.240   2.275
 5628SOL     OW27562   4.591   8.202   2.392
 5628SOL    HW127563   4.678   8.229   2.350
 5628SOL    HW227564   4.516   8.250   2.348
 5629SOL     OW27565   3.977   9.005   0.321
 5629SOL    HW127566   3.896   8.954   0.291
 5629SOL    HW227567   3.949   9.093   0.359
 5630SOL     OW27568   4.865   2.928   1.063
 5630SOL    HW127569   4.896   2.877   0.983
 5630SOL    HW227570   4.942   2.938   1.127
 5631SOL     OW27571   4.872   8.219   3.886
 5631SOL    HW127572   4.932   8.203   3.965
 5631SOL    HW227573   4.802   8.286   3.911
 5632SOL     OW27574   9.434   9.250   3.803
 5632SOL    HW127575   9.492   9.331   3.799
 5632SOL    HW227576   9.432   9.214   3.896
 5633SOL     OW27577   8.469   4.514   2.296
 5633SOL    HW127578   8.494   4.562   2.212
 5633SOL    HW227579   8.487   4.574   2.375
 5634SOL     OW27580   1.895   0.370   3.719
 5634SOL    HW127581   1.994   0.369   3.735
 5634SOL    HW227582   1.847   0.360   3.806
 5635SOL     OW27583   4.706   9.764   0.760
 5635SOL    HW127584   4.666   9.744   0.849
 5635SOL    HW227585   4.803   9.783   0.770
 5636SOL     OW27586   0.354   7.521   1.241
 5636SOL    HW127587   0.363   7.619   1.223
 5636SOL    HW227588   0.309   7.477   1.163
 5637SOL     OW27589   9.216   3.591   1.508
 5637SOL    HW127590   9.257   3.512   1.554
 5637SOL    HW227591   9.274   3.621   1.433
 5638SOL     OW27592   6.767   8.799   2.244
 5638SOL    HW127593   6.855   8.823   2.283
 5638SOL    HW227594   6.714   8.744   2.308
 5639SOL     OW27595   9.656   3.844   0.553
 5639SOL    HW127596   9.706   3.764   0.587
 5639SOL    HW227597   9.689   3.926   0.599
 5640SOL     OW27598   0.991   0.990   2.227
 5640SOL    HW127599   0.943   0.929   2.163
 5640SOL    HW227600   0.937   1.073   2.241
 5641SOL     OW27601   7.966   0.600   1.383
 5641SOL    HW127602   7.986   0.602   1.285
 5641SOL    HW227603   7.867   0.590   1.397
 5642SOL     OW27604   4.376   4.573   0.415
 5642SOL    HW127605   4.375   4.473   0.415
 5642SOL    HW227606   4.470   4.606   0.418
 5643SOL     OW27607   6.991   1.306   2.194
 5643SOL    HW127608   6.924   1.270   2.260
 5643SOL    HW227609   6.973   1.266   2.104
 5644SOL     OW27610   7.761   8.214   1.170
 5644SOL    HW127611   7.716   8.247   1.087
 5644SOL    HW227612   7.786   8.118   1.159
 5645SOL     OW27613   8.407   2.211   2.100
 5645SOL    HW127614   8.320   2.246   2.134
 5645SOL    HW227615   8.401   2.112   2.087
 5646SOL     OW27616   0.479   9.124   2.290
 5646SOL    HW127617   0.468   9.138   2.192
 5646SOL    HW227618   0.393   9.146   2.337
 5647SOL     OW27619   3.122   2.934   1.565
 5647SOL    HW127620   3.222   2.947   1.570
 5647SOL    HW227621   3.095   2.920   1.470
 5648SOL     OW27622   1.768   6.297   0.345
 5648SOL    HW127623   1.738   6.242   0.423
 5648SOL    HW227624   1.865   6.279   0.328
 5649SOL     OW27625   3.954   6.941   1.562
 5649SOL    HW127626   3.935   6.981   1.472
 5649SOL    HW227627   3.988   6.848   1.550
 5650SOL     OW27628   5.346   0.370   0.717
 5650SOL    HW127629   5.391   0.445   0.669
 5650SOL    HW227630   5.404   0.289   0.714
 5651SOL     OW27631   4.742   3.066   3.204
 5651SOL    HW127632   4.840   3.078   3.188
 5651SOL    HW227633   4.728   3.008   3.284
 5652SOL     OW27634   7.502   1.068   2.504
 5652SOL    HW127635   7.509   1.089   2.601
 5652SOL    HW227636   7.586   1.095   2.457
 5653SOL     OW27637   5.342   0.718   1.272
 5653SOL    HW127638   5.346   0.759   1.181
 5653SOL    HW227639   5.279   0.769   1.330
 5654SOL     OW27640   0.343   5.884   1.623
 5654SOL    HW127641   0.362   5.799   1.574
 5654SOL    HW227642   0.258   5.874   1.675
 5655SOL     OW27643   9.558   0.403   0.712
 5655SOL    HW127644   9.498   0.331   0.748
 5655SOL    HW227645   9.550   0.407   0.612
 5656SOL     OW27646   3.310   7.250   3.189
 5656SOL    HW127647   3.369   7.202   3.123
 5656SOL    HW227648   3.267   7.328   3.144
 5657SOL     OW27649   8.658   1.217   3.817
 5657SOL    HW127650   8.645   1.130   3.768
 5657SOL    HW227651   8.573   1.242   3.862
 5658SOL     OW27652   2.023   4.479   1.438
 5658SOL    HW127653   1.949   4.485   1.372
 5658SOL    HW227654   2.042   4.383   1.459
 5659SOL     OW27655   0.068   6.685   2.892
 5659SOL    HW127656   0.124   6.768   2.890
 5659SOL    HW227657   9.979   6.706   2.930
 5660SOL     OW27658   3.900   4.847   0.958
 5660SOL    HW127659   3.804   4.830   0.980
 5660SOL    HW227660   3.908   4.869   0.861
 5661SOL     OW27661   3.431   8.964   1.485
 5661SOL    HW127662   3.514   9.016   1.466
 5661SOL    HW227663   3.399   8.920   1.400
 5662SOL     OW27664   4.716   9.088   0.784
 5662SOL    HW127665   4.626   9.125   0.807
 5662SOL    HW227666   4.724   9.078   0.685
 5663SOL     OW27667   0.125   0.005   0.889
 5663SOL    HW127668   0.033   0.040   0.876
 5663SOL    HW227669   0.149   9.944   0.813
 5664SOL     OW27670   8.119   0.833   4.312
 5664SOL    HW127671   8.092   0.855   4.218
 5664SOL    HW227672   8.143   0.737   4.318
 5665SOL     OW27673   0.100   0.837   3.067
 5665SOL    HW127674   0.174   0.890   3.107
 5665SOL    HW227675   0.076   0.875   2.977
 5666SOL     OW27676   6.903   8.661   2.894
 5666SOL    HW127677   6.954   8.698   2.816
 5666SOL    HW227678   6.958   8.670   2.977
 5667SOL     OW27679   2.811   3.221   4.297
 5667SOL    HW127680   2.834   3.183   4.207
 5667SOL    HW227681   2.894   3.224   4.354
 5668SOL     OW27682   3.411   6.623   0.680
 5668SOL    HW127683   3.418   6.664   0.589
 5668SOL    HW227684   3.353   6.542   0.675
 5669SOL     OW27685   0.351   0.503   2.543
 5669SOL    HW127686   0.381   0.485   2.637
 5669SOL    HW227687   0.423   0.475   2.480
 5670SOL     OW27688   8.311   7.134   4.157
 5670SOL    HW127689   8.344   7.040   4.146
 5670SOL    HW227690   8.387   7.198   4.144
 5671SOL     OW27691   6.557   9.492   3.259
 5671SOL    HW127692   6.498   9.428   3.210
 5671SOL    HW227693   6.593   9.447   3.341
 5672SOL     OW27694   8.122   6.449   1.697
 5672SOL    HW127695   8.039   6.486   1.739
 5672SOL    HW227696   8.198   6.456   1.761
 5673SOL     OW27697   1.947   3.241   2.238
 5673SOL    HW127698   1.943   3.337   2.267
 5673SOL    HW227699   1.872   3.190   2.280
 5674SOL     OW27700   0.318   1.019   2.225
 5674SOL    HW127701   0.343   0.991   2.318
 5674SOL    HW227702   0.220   1.011   2.212
 5675SOL     OW27703   2.424   6.919   3.518
 5675SOL    HW127704   2.445   7.010   3.555
 5675SOL    HW227705   2.487   6.852   3.558
 5676SOL     OW27706   9.882   3.830   3.976
 5676SOL    HW127707   9.906   3.778   4.059
 5676SOL    HW227708   9.887   3.928   3.995
 5677SOL     OW27709   0.690   5.759   2.809
 5677SOL    HW127710   0.640   5.709   2.880
 5677SOL    HW227711   0.780   5.784   2.844
 5678SOL     OW27712   7.775   2.880   2.297
 5678SOL    HW127713   7.757   2.935   2.379
 5678SOL    HW227714   7.710   2.906   2.225
 5679SOL     OW27715   2.423   2.789   3.338
 5679SOL    HW127716   2.453   2.866   3.394
 5679SOL    HW227717   2.399   2.712   3.396
 5680SOL     OW27718   2.167   3.620   4.265
 5680SOL    HW127719   2.172   3.600   4.167
 5680SOL    HW227720   2.218   3.704   4.285
 5681SOL     OW27721   9.838   6.761   3.005
 5681SOL    HW127722   9.787   6.816   2.939
 5681SOL    HW227723   9.776   6.727   3.075
 5682SOL     OW27724   0.062   7.949   0.438
 5682SOL    HW127725   0.070   8.020   0.369
 5682SOL    HW227726   0.020   7.867   0.398
 5683SOL     OW27727   1.353   7.169   3.869
 5683SOL    HW127728   1.384   7.076   3.887
 5683SOL    HW227729   1.318   7.173   3.775
 5684SOL     OW27730   8.081   2.503   4.437
 5684SOL    HW127731   8.113   2.410   4.418
 5684SOL    HW227732   8.045   2.544   4.353
 5685SOL     OW27733   3.171   6.355   3.434
 5685SOL    HW127734   3.122   6.429   3.479
 5685SOL    HW227735   3.262   6.345   3.474
 5686SOL     OW27736   8.127   4.027   1.722
 5686SOL    HW127737   8.158   3.966   1.795
 5686SOL    HW227738   8.075   3.974   1.655
 5687SOL     OW27739   9.082   0.398   0.688
 5687SOL    HW127740   9.014   0.470   0.705
 5687SOL    HW227741   9.155   0.405   0.756
 5688SOL     OW27742   0.996   5.212   1.576
 5688SOL    HW127743   0.985   5.198   1.674
 5688SOL    HW227744   1.084   5.255   1.558
 5689SOL     OW27745   5.263   1.535   4.313
 5689SOL    HW127746   5.253   1.508   4.408
 5689SOL    HW227747   5.359   1.524   4.285
 5690SOL     OW27748   2.615   0.405   4.026
 5690SOL    HW127749   2.618   0.335   3.956
 5690SOL    HW227750   2.519   0.431   4.043
 5691SOL     OW27751   2.613   3.964   2.900
 5691SOL    HW127752   2.655   4.039   2.848
 5691SOL    HW227753   2.626   3.878   2.851
 5692SOL     OW27754   1.864   9.725   1.902
 5692SOL    HW127755   1.767   9.744   1.918
 5692SOL    HW227756   1.901   9.793   1.838
 5693SOL     OW27757   9.530   8.089   3.126
 5693SOL    HW127758   9.623   8.094   3.163
 5693SOL    HW227759   9.534   8.080   3.027
 5694SOL     OW27760   0.578   1.888   0.632
 5694SOL    HW127761   0.610   1.980   0.609
 5694SOL    HW227762   0.514   1.857   0.562
 5695SOL     OW27763   9.097   3.093   0.407
 5695SOL    HW127764   9.165   3.151   0.362
 5695SOL    HW227765   9.133   3.062   0.495
 5696SOL     OW27766   4.812   8.105   3.645
 5696SOL    HW127767   4.718   8.069   3.643
 5696SOL    HW227768   4.832   8.140   3.736
 5697SOL     OW27769   9.637   2.720   0.232
 5697SOL    HW127770   9.625   2.768   0.319
 5697SOL    HW227771   9.735   2.716   0.210
 5698SOL     OW27772   4.533   2.117   4.145
 5698SOL    HW127773   4.604   2.161   4.090
 5698SOL    HW227774   4.457   2.180   4.158
 5699SOL     OW27775   2.027   0.911   2.464
 5699SOL    HW127776   1.946   0.853   2.465
 5699SOL    HW227777   2.105   0.860   2.501
 5700SOL     OW27778   2.658   8.902   0.125
 5700SOL    HW127779   2.648   9.001   0.121
 5700SOL    HW227780   2.749   8.876   0.092
 5701SOL     OW27781   5.020   9.700   3.008
 5701SOL    HW127782   4.998   9.795   3.029
 5701SOL    HW227783   4.942   9.656   2.964
 5702SOL     OW27784   6.124   9.694   2.068
 5702SOL    HW127785   6.093   9.789   2.073
 5702SOL    HW227786   6.085   9.642   2.144
 5703SOL     OW27787   8.111   5.910   1.345
 5703SOL    HW127788   8.157   5.990   1.309
 5703SOL    HW227789   8.062   5.863   1.272
 5704SOL     OW27790   3.273   8.908   0.963
 5704SOL    HW127791   3.181   8.940   0.941
 5704SOL    HW227792   3.333   8.921   0.884
 5705SOL     OW27793   9.599   3.177   0.714
 5705SOL    HW127794   9.586   3.094   0.768
 5705SOL    HW227795   9.520   3.236   0.725
 5706SOL     OW27796   1.539   7.762   3.887
 5706SOL    HW127797   1.439   7.756   3.887
 5706SOL    HW227798   1.578   7.678   3.850
 5707SOL     OW27799   7.906   7.093   1.715
 5707SOL    HW127800   7.924   7.046   1.802
 5707SOL    HW227801   7.970   7.060   1.646
 5708SOL     OW27802   2.251   1.347   2.244
 5708SOL    HW127803   2.220   1.399   2.323
 5708SOL    HW227804   2.237   1.249   2.260
 5709SOL     OW27805   2.643   4.051   0.324
 5709SOL    HW127806   2.735   4.038   0.287
 5709SOL    HW227807   2.642   4.022   0.420
 5710SOL     OW27808   6.117   9.350   3.703
 5710SOL    HW127809   6.132   9.413   3.626
 5710SOL    HW227810   6.203   9.304   3.725
 5711SOL     OW27811   2.359   6.181   2.099
 5711SOL    HW127812   2.448   6.170   2.056
 5711SOL    HW227813   2.304   6.098   2.084
 5712SOL     OW27814   0.277   5.084   0.949
 5712SOL    HW127815   0.187   5.040   0.952
 5712SOL    HW227816   0.306   5.093   0.854
 5713SOL     OW27817   8.658   7.560   3.343
 5713SOL    HW127818   8.678   7.632   3.276
 5713SOL    HW227819   8.708   7.477   3.319
 5714SOL     OW27820   1.738   3.388   4.159
 5714SOL    HW127821   1.818   3.419   4.209
 5714SOL    HW227822   1.766   3.325   4.086
 5715SOL     OW27823   2.597   0.042   0.837
 5715SOL    HW127824   2.696   0.053   0.824
 5715SOL    HW227825   2.575   0.055   0.934
 5716SOL     OW27826   3.421   6.225   4.101
 5716SOL    HW127827   3.507   6.227   4.050
 5716SOL    HW227828   3.386   6.319   4.109
 5717SOL     OW27829   0.307   9.653   2.946
 5717SOL    HW127830   0.213   9.668   2.914
 5717SOL    HW227831   0.366   9.726   2.912
 5718SOL     OW27832   7.646   6.009   2.404
 5718SOL    HW127833   7.548   5.988   2.406
 5718SOL    HW227834   7.659   6.107   2.393
 5719SOL     OW27835   1.215   3.854   2.664
 5719SOL    HW127836   1.242   3.921   2.595
 5719SOL    HW227837   1.240   3.887   2.755
 5720SOL     OW27838   9.403   5.006   3.821
 5720SOL    HW127839   9.318   4.955   3.807
 5720SOL    HW227840   9.481   4.945   3.805
 5721SOL     OW27841   3.566   3.464   1.819
 5721SOL    HW127842   3.633   3.467   1.893
 5721SOL    HW227843   3.582   3.542   1.758
 5722SOL     OW27844   8.307   6.817   3.662
 5722SOL    HW127845   8.364   6.806   3.581
 5722SOL    HW227846   8.327   6.744   3.727
 5723SOL     OW27847   3.378   2.894   3.369
 5723SOL    HW127848   3.428   2.981   3.363
 5723SOL    HW227849   3.422   2.827   3.310
 5724SOL     OW27850   8.170   6.227   0.160
 5724SOL    HW127851   8.264   6.194   0.173
 5724SOL    HW227852   8.108   6.149   0.154
 5725SOL     OW27853   3.526   3.287   3.942
 5725SOL    HW127854   3.623   3.306   3.931
 5725SOL    HW227855   3.508   3.190   3.928
 5726SOL     OW27856   3.578   9.186   4.034
 5726SOL    HW127857   3.558   9.102   3.982
 5726SOL    HW227858   3.492   9.229   4.061
 5727SOL     OW27859   1.575   2.274   1.578
 5727SOL    HW127860   1.520   2.190   1.572
 5727SOL    HW227861   1.581   2.302   1.674
 5728SOL     OW27862   1.345   4.966   3.284
 5728SOL    HW127863   1.275   4.895   3.285
 5728SOL    HW227864   1.421   4.939   3.343
 5729SOL     OW27865   2.396   2.788   2.183
 5729SOL    HW127866   2.469   2.721   2.179
 5729SOL    HW227867   2.407   2.845   2.264
 5730SOL     OW27868   9.946   4.509   4.224
 5730SOL    HW127869   0.024   4.569   4.205
 5730SOL    HW227870   9.931   4.448   4.146
 5731SOL     OW27871   7.620   7.991   4.025
 5731SOL    HW127872   7.521   7.991   4.009
 5731SOL    HW227873   7.639   7.961   4.118
 5732SOL     OW27874   1.179   0.844   0.451
 5732SOL    HW127875   1.273   0.863   0.423
 5732SOL    HW227876   1.177   0.825   0.549
 5733SOL     OW27877   8.058   9.724   3.155
 5733SOL    HW127878   8.023   9.636   3.125
 5733SOL    HW227879   8.084   9.719   3.252
 5734SOL     OW27880   9.663   2.080   2.938
 5734SOL    HW127881   9.761   2.096   2.950
 5734SOL    HW227882   9.611   2.150   2.987
 5735SOL     OW27883   4.003   9.496   0.158
 5735SOL    HW127884   4.095   9.482   0.195
 5735SOL    HW227885   4.009   9.543   0.070
 5736SOL     OW27886   4.654   8.934   3.443
 5736SOL    HW127887   4.668   8.840   3.475
 5736SOL    HW227888   4.739   8.985   3.452
 5737SOL     OW27889   8.454   6.768   3.437
 5737SOL    HW127890   8.534   6.713   3.412
 5737SOL    HW227891   8.457   6.854   3.387
 5738SOL     OW27892   0.306   1.841   3.684
 5738SOL    HW127893   0.380   1.852   3.750
 5738SOL    HW227894   0.344   1.839   3.592
 5739SOL     OW27895   7.334   7.839   1.520
 5739SOL    HW127896   7.262   7.772   1.502
 5739SOL    HW227897   7.293   7.928   1.537
 5740SOL     OW27898   5.755   1.581   3.382
 5740SOL    HW127899   5.679   1.632   3.341
 5740SOL    HW227900   5.796   1.521   3.313
 5741SOL     OW27901   9.834   7.074   3.268
 5741SOL    HW127902   9.816   7.010   3.342
 5741SOL    HW227903   9.752   7.086   3.212
 5742SOL     OW27904   9.789   6.743   2.003
 5742SOL    HW127905   9.777   6.643   2.002
 5742SOL    HW227906   9.759   6.781   1.915
 5743SOL     OW27907   4.306   0.829   0.418
 5743SOL    HW127908   4.325   0.735   0.444
 5743SOL    HW227909   4.391   0.876   0.396
 5744SOL     OW27910   2.257   4.885   0.291
 5744SOL    HW127911   2.296   4.917   0.377
 5744SOL    HW227912   2.297   4.937   0.215
 5745SOL     OW27913   1.645   8.866   0.980
 5745SOL    HW127914   1.603   8.775   0.973
 5745SOL    HW227915   1.626   8.904   1.070
 5746SOL     OW27916   3.287   6.475   4.085
 5746SOL    HW127917   3.236   6.437   4.162
 5746SOL    HW227918   3.310   6.571   4.104
 5747SOL     OW27919   3.354   9.775   3.336
 5747SOL    HW127920   3.445   9.758   3.375
 5747SOL    HW227921   3.290   9.799   3.410
 5748SOL     OW27922   7.628   8.506   1.767
 5748SOL    HW127923   7.709   8.565   1.762
 5748SOL    HW227924   7.617   8.472   1.860
 5749SOL     OW27925   4.584   8.110   0.698
 5749SOL    HW127926   4.627   8.132   0.786
 5749SOL    HW227927   4.535   8.023   0.706
 5750SOL     OW27928   2.299   3.762   3.587
 5750SOL    HW127929   2.200   3.749   3.592
 5750SOL    HW227930   2.322   3.854   3.620
 5751SOL     OW27931   7.776   4.942   0.712
 5751SOL    HW127932   7.717   4.921   0.790
 5751SOL    HW227933   7.719   4.967   0.633
 5752SOL     OW27934   4.846   7.330   2.386
 5752SOL    HW127935   4.761   7.277   2.392
 5752SOL    HW227936   4.831   7.410   2.327
 5753SOL     OW27937   9.063   1.854   3.056
 5753SOL    HW127938   9.004   1.913   3.112
 5753SOL    HW227939   9.152   1.844   3.099
 5754SOL     OW27940   8.183   1.781   2.516
 5754SOL    HW127941   8.135   1.779   2.429
 5754SOL    HW227942   8.164   1.869   2.562
 5755SOL     OW27943   2.359   0.147   2.956
 5755SOL    HW127944   2.418   0.199   2.894
 5755SOL    HW227945   2.415   0.090   3.016
 5756SOL     OW27946   4.339   0.109   4.177
 5756SOL    HW127947   4.274   0.042   4.141
 5756SOL    HW227948   4.292   0.168   4.243
 5757SOL     OW27949   0.668   1.265   2.427
 5757SOL    HW127950   0.592   1.269   2.362
 5757SOL    HW227951   0.754   1.287   2.379
 5758SOL     OW27952   8.270   1.397   1.044
 5758SOL    HW127953   8.299   1.490   1.022
 5758SOL    HW227954   8.252   1.347   0.959
 5759SOL     OW27955   3.325   4.315   2.084
 5759SOL    HW127956   3.323   4.380   2.008
 5759SOL    HW227957   3.243   4.326   2.140
 5760SOL     OW27958   0.689   6.917   3.169
 5760SOL    HW127959   0.668   6.984   3.097
 5760SOL    HW227960   0.701   6.827   3.128
 5761SOL     OW27961   5.143   9.938   4.012
 5761SOL    HW127962   5.209   9.867   3.987
 5761SOL    HW227963   5.070   9.941   3.944
 5762SOL     OW27964   2.468   0.673   0.278
 5762SOL    HW127965   2.552   0.622   0.295
 5762SOL    HW227966   2.444   0.726   0.359
 5763SOL     OW27967   7.084   1.556   3.348
 5763SOL    HW127968   7.058   1.522   3.258
 5763SOL    HW227969   7.154   1.496   3.387
 5764SOL     OW27970   9.545   0.362   1.782
 5764SOL    HW127971   9.622   0.417   1.751
 5764SOL    HW227972   9.532   0.284   1.720
 5765SOL     OW27973   3.370   9.048   1.932
 5765SOL    HW127974   3.408   9.020   2.020
 5765SOL    HW227975   3.425   9.009   1.858
 5766SOL     OW27976   8.979   8.449   3.095
 5766SOL    HW127977   9.069   8.449   3.050
 5766SOL    HW227978   8.960   8.541   3.131
 5767SOL     OW27979   4.566   0.494   0.603
 5767SOL    HW127980   4.593   0.586   0.575
 5767SOL    HW227981   4.577   0.484   0.702
 5768SOL     OW27982   0.190   3.049   3.268
 5768SOL    HW127983   0.165   2.987   3.343
 5768SOL    HW227984   0.268   3.013   3.218
 5769SOL     OW27985   2.479   2.270   3.883
 5769SOL    HW127986   2.413   2.344   3.895
 5769SOL    HW227987   2.493   2.224   3.971
 5770SOL     OW27988   7.740   8.488   2.375
 5770SOL    HW127989   7.808   8.418   2.356
 5770SOL    HW227990   7.769   8.543   2.453
 5771SOL     OW27991   4.891   3.454   3.312
 5771SOL    HW127992   4.863   3.425   3.221
 5771SOL    HW227993   4.846   3.541   3.335
 5772SOL     OW27994   1.904   3.514   2.318
 5772SOL    HW127995   1.815   3.474   2.343
 5772SOL    HW227996   1.948   3.550   2.400
 5773SOL     OW27997   4.619   1.155   1.207
 5773SOL    HW127998   4.540   1.205   1.170
 5773SOL    HW227999   4.617   1.061   1.175
 5774SOL     OW28000   9.686   5.354   3.796
 5774SOL    HW128001   9.618   5.381   3.728
 5774SOL    HW228002   9.642   5.296   3.865
 5775SOL     OW28003   0.287   9.210   1.411
 5775SOL    HW128004   0.284   9.158   1.326
 5775SOL    HW228005   0.374   9.258   1.418
 5776SOL     OW28006   3.924   3.414   1.119
 5776SOL    HW128007   3.989   3.452   1.185
 5776SOL    HW228008   3.917   3.315   1.132
 5777SOL     OW28009   6.694   7.258   3.930
 5777SOL    HW128010   6.610   7.218   3.967
 5777SOL    HW228011   6.756   7.186   3.901
 5778SOL     OW28012   6.053   0.283   2.382
 5778SOL    HW128013   6.136   0.283   2.438
 5778SOL    HW228014   5.973   0.288   2.442
 5779SOL     OW28015   1.795   3.335   3.406
 5779SOL    HW128016   1.738   3.392   3.346
 5779SOL    HW228017   1.879   3.310   3.358
 5780SOL     OW28018   1.630   1.345   3.574
 5780SOL    HW128019   1.607   1.370   3.480
 5780SOL    HW228020   1.586   1.258   3.596
 5781SOL     OW28021   7.798   4.782   1.012
 5781SOL    HW128022   7.842   4.872   1.018
 5781SOL    HW228023   7.704   4.794   0.980
 5782SOL     OW28024   0.464   2.904   3.808
 5782SOL    HW128025   0.559   2.931   3.824
 5782SOL    HW228026   0.459   2.804   3.799
 5783SOL     OW28027   8.905   0.598   0.770
 5783SOL    HW128028   8.854   0.631   0.691
 5783SOL    HW228029   8.850   0.613   0.853
 5784SOL     OW28030   1.269   2.483   1.337
 5784SOL    HW128031   1.270   2.516   1.243
 5784SOL    HW228032   1.362   2.486   1.375
 5785SOL     OW28033   2.232   7.620   1.804
 5785SOL    HW128034   2.254   7.594   1.898
 5785SOL    HW228035   2.310   7.598   1.744
 5786SOL     OW28036   8.031   0.397   0.281
 5786SOL    HW128037   7.954   0.434   0.230
 5786SOL    HW228038   8.117   0.426   0.238
 5787SOL     OW28039   4.526   0.758   4.197
 5787SOL    HW128040   4.499   0.772   4.102
 5787SOL    HW228041   4.610   0.809   4.215
 5788SOL     OW28042   1.317   8.878   2.098
 5788SOL    HW128043   1.351   8.921   2.014
 5788SOL    HW228044   1.322   8.944   2.173
 5789SOL     OW28045   7.906   2.642   2.320
 5789SOL    HW128046   7.832   2.580   2.293
 5789SOL    HW228047   7.870   2.735   2.328
 5790SOL     OW28048   2.831   3.844   0.705
 5790SOL    HW128049   2.916   3.868   0.658
 5790SOL    HW228050   2.846   3.846   0.804
 5791SOL     OW28051   1.646   1.674   1.390
 5791SOL    HW128052   1.718   1.742   1.377
 5791SOL    HW228053   1.584   1.705   1.462
 5792SOL     OW28054   4.526   2.954   1.397
 5792SOL    HW128055   4.611   2.902   1.389
 5792SOL    HW228056   4.541   3.047   1.364
 5793SOL     OW28057   5.671   1.317   2.665
 5793SOL    HW128058   5.749   1.264   2.631
 5793SOL    HW228059   5.604   1.255   2.705
 5794SOL     OW28060   7.608   0.333   2.754
 5794SOL    HW128061   7.686   0.363   2.698
 5794SOL    HW228062   7.549   0.275   2.698
 5795SOL     OW28063   1.926   1.165   4.037
 5795SOL    HW128064   1.893   1.156   4.131
 5795SOL    HW228065   1.928   1.075   3.994
 5796SOL     OW28066   3.335   1.483   0.238
 5796SOL    HW128067   3.331   1.385   0.259
 5796SOL    HW228068   3.282   1.533   0.306
 5797SOL     OW28069   8.910   2.036   2.644
 5797SOL    HW128070   8.903   1.974   2.723
 5797SOL    HW228071   8.904   1.983   2.560
 5798SOL     OW28072   3.873   3.146   0.190
 5798SOL    HW128073   3.909   3.115   0.102
 5798SOL    HW228074   3.781   3.110   0.203
 5799SOL     OW28075   4.801   2.670   0.652
 5799SOL    HW128076   4.780   2.682   0.555
 5799SOL    HW228077   4.829   2.576   0.669
 5800SOL     OW28078   1.427   1.705   3.648
 5800SOL    HW128079   1.414   1.663   3.558
 5800SOL    HW228080   1.493   1.652   3.700
 5801SOL     OW28081   0.604   2.255   0.282
 5801SOL    HW128082   0.542   2.310   0.339
 5801SOL    HW228083   0.685   2.309   0.260
 5802SOL     OW28084   2.764   4.962   2.957
 5802SOL    HW128085   2.849   4.974   3.008
 5802SOL    HW228086   2.785   4.941   2.861
 5803SOL     OW28087   2.943   8.359   3.958
 5803SOL    HW128088   2.892   8.443   3.937
 5803SOL    HW228089   3.016   8.346   3.892
 5804SOL     OW28090   1.854   7.869   3.002
 5804SOL    HW128091   1.776   7.889   2.942
 5804SOL    HW228092   1.823   7.868   3.097
 5805SOL     OW28093   8.577   0.098   1.827
 5805SOL    HW128094   8.607   0.192   1.813
 5805SOL    HW228095   8.484   0.097   1.863
 5806SOL     OW28096   2.372   0.203   4.164
 5806SOL    HW128097   2.437   0.218   4.239
 5806SOL    HW228098   2.393   0.115   4.120
 5807SOL     OW28099   0.125   9.411   1.110
 5807SOL    HW128100   0.223   9.419   1.090
 5807SOL    HW228101   0.078   9.377   1.029
 5808SOL     OW28102   1.497   7.572   1.852
 5808SOL    HW128103   1.484   7.624   1.767
 5808SOL    HW228104   1.487   7.634   1.930
 5809SOL     OW28105   9.729   7.791   0.310
 5809SOL    HW128106   9.667   7.717   0.285
 5809SOL    HW228107   9.823   7.755   0.316
 5810SOL     OW28108   1.940   2.129   2.911
 5810SOL    HW128109   1.987   2.083   2.986
 5810SOL    HW228110   1.995   2.207   2.879
 5811SOL     OW28111   8.685   6.461   2.085
 5811SOL    HW128112   8.596   6.464   2.130
 5811SOL    HW228113   8.752   6.510   2.139
 5812SOL     OW28114   3.820   0.331   1.746
 5812SOL    HW128115   3.758   0.345   1.823
 5812SOL    HW228116   3.783   0.377   1.665
 5813SOL     OW28117   4.312   0.250   2.575
 5813SOL    HW128118   4.298   0.172   2.513
 5813SOL    HW228119   4.296   0.335   2.526
 5814SOL     OW28120   3.842   1.510   2.381
 5814SOL    HW128121   3.930   1.485   2.339
 5814SOL    HW228122   3.858   1.545   2.474
 5815SOL     OW28123   3.362   9.331   0.678
 5815SOL    HW128124   3.372   9.240   0.718
 5815SOL    HW228125   3.395   9.400   0.743
 5816SOL     OW28126   8.391   5.604   1.024
 5816SOL    HW128127   8.319   5.541   1.052
 5816SOL    HW228128   8.362   5.698   1.043
 5817SOL     OW28129   2.675   5.836   0.757
 5817SOL    HW128130   2.712   5.905   0.819
 5817SOL    HW228131   2.578   5.856   0.739
 5818SOL     OW28132   9.979   0.779   0.289
 5818SOL    HW128133   9.891   0.808   0.328
 5818SOL    HW228134   0.005   0.843   0.217
 5819SOL     OW28135   1.036   1.455   0.993
 5819SOL    HW128136   1.026   1.459   0.893
 5819SOL    HW228137   1.132   1.469   1.017
 5820SOL     OW28138   3.468   7.540   3.052
 5820SOL    HW128139   3.471   7.539   3.152
 5820SOL    HW228140   3.379   7.505   3.022
 5821SOL     OW28141   3.794   5.232   1.145
 5821SOL    HW128142   3.820   5.318   1.188
 5821SOL    HW228143   3.694   5.225   1.143
 5822SOL     OW28144   2.091   4.837   0.785
 5822SOL    HW128145   1.992   4.835   0.776
 5822SOL    HW228146   2.117   4.814   0.879
 5823SOL     OW28147   4.104   7.428   3.115
 5823SOL    HW128148   4.062   7.479   3.040
 5823SOL    HW228149   4.073   7.465   3.203
 5824SOL     OW28150   6.351   8.365   2.258
 5824SOL    HW128151   6.318   8.437   2.198
 5824SOL    HW228152   6.387   8.289   2.203
 5825SOL     OW28153   7.459   4.878   0.199
 5825SOL    HW128154   7.418   4.813   0.135
 5825SOL    HW228155   7.558   4.877   0.190
 5826SOL     OW28156   9.094   1.491   4.074
 5826SOL    HW128157   9.105   1.443   4.161
 5826SOL    HW228158   9.001   1.476   4.040
 5827SOL     OW28159   8.414   9.565   2.788
 5827SOL    HW128160   8.406   9.638   2.721
 5827SOL    HW228161   8.483   9.589   2.856
 5828SOL     OW28162   9.259   2.862   1.442
 5828SOL    HW128163   9.318   2.783   1.457
 5828SOL    HW228164   9.253   2.881   1.344
 5829SOL     OW28165   1.226   3.983   2.178
 5829SOL    HW128166   1.208   3.983   2.080
 5829SOL    HW228167   1.320   4.013   2.195
 5830SOL     OW28168   4.984   7.319   1.380
 5830SOL    HW128169   5.040   7.261   1.321
 5830SOL    HW228170   5.008   7.415   1.366
 5831SOL     OW28171   4.215   6.870   3.455
 5831SOL    HW128172   4.243   6.890   3.548
 5831SOL    HW228173   4.115   6.868   3.450
 5832SOL     OW28174   7.257   1.214   3.854
 5832SOL    HW128175   7.203   1.288   3.812
 5832SOL    HW228176   7.200   1.166   3.922
 5833SOL     OW28177   0.767   9.313   3.164
 5833SOL    HW128178   0.765   9.231   3.107
 5833SOL    HW228179   0.715   9.385   3.119
 5834SOL     OW28180   8.587   0.569   3.718
 5834SOL    HW128181   8.503   0.620   3.738
 5834SOL    HW228182   8.600   0.565   3.619
 5835SOL     OW28183   0.281   0.372   0.193
 5835SOL    HW128184   0.285   0.454   0.137
 5835SOL    HW228185   0.358   0.371   0.256
 5836SOL     OW28186   8.856   5.438   0.917
 5836SOL    HW128187   8.759   5.447   0.940
 5836SOL    HW228188   8.889   5.349   0.950
 5837SOL     OW28189   1.817   0.611   4.243
 5837SOL    HW128190   1.900   0.624   4.189
 5837SOL    HW228191   1.750   0.680   4.218
 5838SOL     OW28192   2.740   0.751   3.830
 5838SOL    HW128193   2.802   0.677   3.853
 5838SOL    HW228194   2.672   0.762   3.903
 5839SOL     OW28195   8.894   9.650   2.580
 5839SOL    HW128196   8.819   9.710   2.608
 5839SOL    HW228197   8.952   9.699   2.515
 5840SOL     OW28198   4.270   8.030   1.531
 5840SOL    HW128199   4.243   8.065   1.621
 5840SOL    HW228200   4.208   7.956   1.504
 5841SOL     OW28201   8.773   6.505   1.835
 5841SOL    HW128202   8.742   6.471   1.924
 5841SOL    HW228203   8.873   6.505   1.832
 5842SOL     OW28204   3.823   6.535   2.607
 5842SOL    HW128205   3.888   6.482   2.553
 5842SOL    HW228206   3.732   6.528   2.567
 5843SOL     OW28207   8.359   7.052   3.370
 5843SOL    HW128208   8.274   7.008   3.344
 5843SOL    HW228209   8.343   7.110   3.451
 5844SOL     OW28210   2.358   0.743   2.285
 5844SOL    HW128211   2.329   0.753   2.190
 5844SOL    HW228212   2.428   0.812   2.306
 5845SOL     OW28213   4.892   2.510   0.212
 5845SOL    HW128214   4.943   2.478   0.133
 5845SOL    HW228215   4.832   2.437   0.245
 5846SOL     OW28216   4.263   4.931   1.531
 5846SOL    HW128217   4.354   4.969   1.550
 5846SOL    HW228218   4.218   4.986   1.461
 5847SOL     OW28219   7.152   0.878   3.055
 5847SOL    HW128220   7.068   0.849   3.010
 5847SOL    HW228221   7.130   0.914   3.146
 5848SOL     OW28222   2.864   5.551   1.247
 5848SOL    HW128223   2.839   5.647   1.238
 5848SOL    HW228224   2.816   5.512   1.326
 5849SOL     OW28225   3.755   4.669   2.028
 5849SOL    HW128226   3.681   4.711   2.080
 5849SOL    HW228227   3.791   4.734   1.961
 5850SOL     OW28228   9.632   8.332   4.175
 5850SOL    HW128229   9.560   8.315   4.108
 5850SOL    HW228230   9.711   8.275   4.154
 5851SOL     OW28231   8.518   0.373   3.900
 5851SOL    HW128232   8.559   0.430   3.828
 5851SOL    HW228233   8.586   0.311   3.937
 5852SOL     OW28234   3.942   6.829   2.382
 5852SOL    HW128235   3.946   6.920   2.340
 5852SOL    HW228236   3.926   6.760   2.312
 5853SOL     OW28237   5.116   2.665   2.039
 5853SOL    HW128238   5.034   2.613   2.015
 5853SOL    HW228239   5.165   2.691   1.956
 5854SOL     OW28240   0.691   7.115   2.977
 5854SOL    HW128241   0.768   7.171   3.006
 5854SOL    HW228242   0.703   7.087   2.882
 5855SOL     OW28243   3.799   7.635   1.398
 5855SOL    HW128244   3.788   7.735   1.399
 5855SOL    HW228245   3.861   7.610   1.324
 5856SOL     OW28246   1.882   5.405   3.955
 5856SOL    HW128247   1.916   5.311   3.961
 5856SOL    HW228248   1.957   5.469   3.970
 5857SOL     OW28249   3.377   4.891   3.268
 5857SOL    HW128250   3.412   4.845   3.350
 5857SOL    HW228251   3.365   4.988   3.287
 5858SOL     OW28252   3.464   8.143   1.610
 5858SOL    HW128253   3.399   8.094   1.668
 5858SOL    HW228254   3.453   8.241   1.624
 5859SOL     OW28255   2.118   6.444   1.759
 5859SOL    HW128256   2.062   6.405   1.832
 5859SOL    HW228257   2.175   6.517   1.796
 5860SOL     OW28258   6.239   9.501   2.904
 5860SOL    HW128259   6.303   9.449   2.960
 5860SOL    HW228260   6.214   9.448   2.823
 5861SOL     OW28261   1.347   5.472   1.716
 5861SOL    HW128262   1.300   5.560   1.720
 5861SOL    HW228263   1.446   5.486   1.706
 5862SOL     OW28264   8.333   2.988   3.115
 5862SOL    HW128265   8.339   2.920   3.188
 5862SOL    HW228266   8.272   2.954   3.043
 5863SOL     OW28267   9.611   2.703   1.117
 5863SOL    HW128268   9.698   2.654   1.116
 5863SOL    HW228269   9.562   2.689   1.031
 5864SOL     OW28270   3.242   5.798   0.604
 5864SOL    HW128271   3.319   5.862   0.611
 5864SOL    HW228272   3.160   5.842   0.640
 5865SOL     OW28273   8.178   2.355   2.175
 5865SOL    HW128274   8.200   2.444   2.135
 5865SOL    HW228275   8.110   2.367   2.247
 5866SOL     OW28276   0.523   3.256   0.769
 5866SOL    HW128277   0.529   3.267   0.670
 5866SOL    HW228278   0.445   3.198   0.791
 5867SOL     OW28279   3.539   9.933   0.665
 5867SOL    HW128280   3.635   9.940   0.638
 5867SOL    HW228281   3.506   9.840   0.648
 5868SOL     OW28282   8.696   1.610   1.892
 5868SOL    HW128283   8.672   1.554   1.813
 5868SOL    HW228284   8.795   1.608   1.906
 5869SOL     OW28285   8.545   7.106   2.843
 5869SOL    HW128286   8.629   7.112   2.897
 5869SOL    HW228287   8.482   7.178   2.871
 5870SOL     OW28288   7.703   0.553   1.675
 5870SOL    HW128289   7.696   0.651   1.693
 5870SOL    HW228290   7.619   0.508   1.707
 5871SOL     OW28291   7.720   3.012   2.534
 5871SOL    HW128292   7.717   3.012   2.634
 5871SOL    HW228293   7.795   3.072   2.504
 5872SOL     OW28294   3.556   7.333   1.068
 5872SOL    HW128295   3.472   7.355   1.117
 5872SOL    HW228296   3.539   7.335   0.969
 5873SOL     OW28297   1.217   9.848   0.768
 5873SOL    HW128298   1.237   9.945   0.782
 5873SOL    HW228299   1.265   9.816   0.686
 5874SOL     OW28300   7.707   8.007   3.007
 5874SOL    HW128301   7.775   8.033   3.076
 5874SOL    HW228302   7.730   8.050   2.919
 5875SOL     OW28303   4.750   2.494   4.141
 5875SOL    HW128304   4.716   2.404   4.115
 5875SOL    HW228305   4.676   2.560   4.135
 5876SOL     OW28306   4.008   3.978   1.949
 5876SOL    HW128307   4.089   3.955   2.003
 5876SOL    HW228308   4.037   4.012   1.859
 5877SOL     OW28309   8.797   2.851   3.871
 5877SOL    HW128310   8.835   2.759   3.859
 5877SOL    HW228311   8.739   2.852   3.952
 5878SOL     OW28312   8.441   6.139   0.195
 5878SOL    HW128313   8.479   6.154   0.286
 5878SOL    HW228314   8.472   6.211   0.134
 5879SOL     OW28315   0.300   6.376   1.540
 5879SOL    HW128316   0.385   6.421   1.515
 5879SOL    HW228317   0.306   6.278   1.521
 5880SOL     OW28318   0.733   3.828   1.515
 5880SOL    HW128319   0.796   3.776   1.572
 5880SOL    HW228320   0.758   3.816   1.418
 5881SOL     OW28321   1.903   6.154   1.974
 5881SOL    HW128322   1.884   6.173   1.878
 5881SOL    HW228323   1.938   6.237   2.018
 5882SOL     OW28324   3.888   7.671   1.818
 5882SOL    HW128325   3.843   7.618   1.747
 5882SOL    HW228326   3.913   7.611   1.895
 5883SOL     OW28327   2.954   2.355   3.400
 5883SOL    HW128328   2.982   2.298   3.477
 5883SOL    HW228329   2.962   2.303   3.315
 5884SOL     OW28330   0.062   7.261   1.434
 5884SOL    HW128331   0.014   7.246   1.520
 5884SOL    HW228332   0.151   7.304   1.452
 5885SOL     OW28333   5.480   9.316   1.376
 5885SOL    HW128334   5.404   9.377   1.354
 5885SOL    HW228335   5.565   9.351   1.337
 5886SOL     OW28336   1.986   9.199   0.230
 5886SOL    HW128337   2.033   9.115   0.203
 5886SOL    HW228338   1.902   9.176   0.278
 5887SOL     OW28339   2.977   6.372   1.067
 5887SOL    HW128340   3.050   6.417   1.119
 5887SOL    HW228341   2.889   6.386   1.114
 5888SOL     OW28342   0.834   4.621   0.980
 5888SOL    HW128343   0.851   4.546   1.045
 5888SOL    HW228344   0.832   4.708   1.029
 5889SOL     OW28345   9.307   4.391   2.849
 5889SOL    HW128346   9.298   4.457   2.923
 5889SOL    HW228347   9.216   4.367   2.814
 5890SOL     OW28348   5.272   2.743   0.589
 5890SOL    HW128349   5.279   2.781   0.497
 5890SOL    HW228350   5.314   2.806   0.655
 5891SOL     OW28351   1.727   1.323   2.625
 5891SOL    HW128352   1.734   1.297   2.721
 5891SOL    HW228353   1.795   1.272   2.572
 5892SOL     OW28354   9.908   3.103   2.307
 5892SOL    HW128355   9.979   3.056   2.360
 5892SOL    HW228356   9.916   3.202   2.321
 5893SOL     OW28357   3.616   9.730   3.439
 5893SOL    HW128358   3.611   9.811   3.498
 5893SOL    HW228359   3.708   9.723   3.400
 5894SOL     OW28360   0.730   8.052   3.851
 5894SOL    HW128361   0.826   8.029   3.834
 5894SOL    HW228362   0.723   8.149   3.874
 5895SOL     OW28363   9.830   8.504   3.470
 5895SOL    HW128364   9.751   8.532   3.525
 5895SOL    HW228365   9.799   8.469   3.382
 5896SOL     OW28366   4.501   9.041   3.645
 5896SOL    HW128367   4.557   9.019   3.724
 5896SOL    HW228368   4.546   9.008   3.562
 5897SOL     OW28369   0.495   2.011   0.251
 5897SOL    HW128370   0.561   1.938   0.232
 5897SOL    HW228371   0.542   2.098   0.259
 5898SOL     OW28372   3.128   4.706   3.820
 5898SOL    HW128373   3.039   4.752   3.823
 5898SOL    HW228374   3.201   4.774   3.825
 5899SOL     OW28375   2.041   2.325   2.195
 5899SOL    HW128376   2.059   2.348   2.290
 5899SOL    HW228377   2.117   2.356   2.138
 5900SOL     OW28378   2.529   6.007   0.452
 5900SOL    HW128379   2.589   5.978   0.377
 5900SOL    HW228380   2.509   5.929   0.511
 5901SOL     OW28381   6.342   9.961   4.059
 5901SOL    HW128382   6.271   9.908   4.106
 5901SOL    HW228383   6.420   9.901   4.040
 5902SOL     OW28384   9.273   9.968   2.351
 5902SOL    HW128385   9.353   9.966   2.411
 5902SOL    HW228386   9.268   0.056   2.304
 5903SOL     OW28387   3.030   3.553   1.155
 5903SOL    HW128388   2.973   3.531   1.235
 5903SOL    HW228389   3.125   3.528   1.174
 5904SOL     OW28390   1.048   9.294   0.590
 5904SOL    HW128391   1.014   9.248   0.508
 5904SOL    HW228392   0.978   9.356   0.625
 5905SOL     OW28393   7.445   8.479   1.019
 5905SOL    HW128394   7.434   8.476   1.119
 5905SOL    HW228395   7.438   8.574   0.988
 5906SOL     OW28396   3.815   8.218   4.223
 5906SOL    HW128397   3.856   8.133   4.193
 5906SOL    HW228398   3.757   8.201   4.303
 5907SOL     OW28399   8.577   6.761   2.194
 5907SOL    HW128400   8.538   6.671   2.213
 5907SOL    HW228401   8.653   6.777   2.257
 5908SOL     OW28402   6.166   7.244   3.153
 5908SOL    HW128403   6.234   7.212   3.088
 5908SOL    HW228404   6.211   7.277   3.236
 5909SOL     OW28405   3.126   3.388   1.438
 5909SOL    HW128406   3.124   3.379   1.538
 5909SOL    HW228407   3.034   3.412   1.405
 5910SOL     OW28408   0.363   3.279   3.593
 5910SOL    HW128409   0.351   3.288   3.494
 5910SOL    HW228410   0.454   3.312   3.619
 5911SOL     OW28411   3.080   2.871   2.292
 5911SOL    HW128412   3.137   2.789   2.300
 5911SOL    HW228413   3.120   2.943   2.349
 5912SOL     OW28414   1.966   0.296   2.065
 5912SOL    HW128415   1.903   0.316   2.140
 5912SOL    HW228416   1.936   0.213   2.018
 5913SOL     OW28417   0.312   3.895   2.620
 5913SOL    HW128418   0.324   3.802   2.584
 5913SOL    HW228419   0.286   3.890   2.717
 5914SOL     OW28420   8.104   0.816   2.318
 5914SOL    HW128421   8.139   0.892   2.263
 5914SOL    HW228422   8.098   0.734   2.261
 5915SOL     OW28423   3.521   2.081   3.582
 5915SOL    HW128424   3.430   2.045   3.599
 5915SOL    HW228425   3.515   2.179   3.563
 5916SOL     OW28426   2.596   9.335   0.835
 5916SOL    HW128427   2.666   9.314   0.903
 5916SOL    HW228428   2.627   9.411   0.778
 5917SOL     OW28429   5.520   1.567   4.213
 5917SOL    HW128430   5.501   1.666   4.219
 5917SOL    HW228431   5.508   1.536   4.119
 5918SOL     OW28432   9.569   8.017   3.915
 5918SOL    HW128433   9.557   8.034   4.012
 5918SOL    HW228434   9.624   8.089   3.875
 5919SOL     OW28435   8.005   7.078   3.081
 5919SOL    HW128436   7.946   7.027   3.018
 5919SOL    HW228437   8.054   7.013   3.140
 5920SOL     OW28438   2.020   3.715   3.562
 5920SOL    HW128439   1.980   3.798   3.600
 5920SOL    HW228440   1.965   3.636   3.587
 5921SOL     OW28441   1.944   9.332   2.498
 5921SOL    HW128442   1.896   9.266   2.440
 5921SOL    HW228443   1.915   9.321   2.593
 5922SOL     OW28444   0.008   9.671   0.180
 5922SOL    HW128445   9.949   9.593   0.201
 5922SOL    HW228446   9.952   9.745   0.142
 5923SOL     OW28447   1.240   5.042   0.119
 5923SOL    HW128448   1.273   4.949   0.100
 5923SOL    HW228449   1.156   5.059   0.068
 5924SOL     OW28450   3.460   7.505   3.328
 5924SOL    HW128451   3.380   7.504   3.387
 5924SOL    HW228452   3.504   7.415   3.330
 5925SOL     OW28453   2.887   8.523   1.480
 5925SOL    HW128454   2.921   8.434   1.512
 5925SOL    HW228455   2.803   8.546   1.528
 5926SOL     OW28456   8.862   4.510   0.822
 5926SOL    HW128457   8.852   4.447   0.899
 5926SOL    HW228458   8.878   4.602   0.855
 5927SOL     OW28459   2.574   1.094   1.697
 5927SOL    HW128460   2.624   1.179   1.716
 5927SOL    HW228461   2.518   1.070   1.776
 5928SOL     OW28462   1.618   3.123   3.442
 5928SOL    HW128463   1.535   3.150   3.394
 5928SOL    HW228464   1.686   3.196   3.435
 5929SOL     OW28465   3.963   0.107   4.171
 5929SOL    HW128466   4.037   0.042   4.154
 5929SOL    HW228467   3.991   0.198   4.142
 5930SOL     OW28468   2.030   9.657   5.617
 5930SOL    HW128469   2.027   9.625   5.522
 5930SOL    HW228470   2.042   9.578   0.044
 5931SOL     OW28471   9.113   0.643   2.255
 5931SOL    HW128472   9.044   0.633   2.182
 5931SOL    HW228473   9.136   0.554   2.292
 5932SOL     OW28474   7.590   6.567   2.772
 5932SOL    HW128475   7.617   6.659   2.746
 5932SOL    HW228476   7.563   6.516   2.690
 5933SOL     OW28477   1.205   8.056   0.469
 5933SOL    HW128478   1.262   8.139   0.467
 5933SOL    HW228479   1.136   8.066   0.541
 5934SOL     OW28480   9.156   2.740   2.976
 5934SOL    HW128481   9.215   2.782   2.907
 5934SOL    HW228482   9.073   2.704   2.932
 5935SOL     OW28483   2.214   6.941   0.941
 5935SOL    HW128484   2.187   6.913   1.033
 5935SOL    HW228485   2.172   6.879   0.875
 5936SOL     OW28486   7.379   0.702   3.861
 5936SOL    HW128487   7.310   0.688   3.790
 5936SOL    HW228488   7.381   0.799   3.885
 5937SOL     OW28489   9.315   9.847   0.715
 5937SOL    HW128490   9.395   9.879   0.664
 5937SOL    HW228491   9.337   9.844   0.813
 5938SOL     OW28492   4.937   8.682   1.286
 5938SOL    HW128493   5.002   8.750   1.317
 5938SOL    HW228494   4.968   8.591   1.314
 5939SOL     OW28495   1.726   0.738   1.466
 5939SOL    HW128496   1.712   0.747   1.564
 5939SOL    HW228497   1.777   0.654   1.446
 5940SOL     OW28498   3.501   5.796   0.841
 5940SOL    HW128499   3.477   5.833   0.751
 5940SOL    HW228500   3.450   5.712   0.857
 5941SOL     OW28501   3.310   6.969   0.336
 5941SOL    HW128502   3.370   7.025   0.393
 5941SOL    HW228503   3.309   7.006   0.243
 5942SOL     OW28504   0.387   6.659   4.134
 5942SOL    HW128505   0.287   6.662   4.137
 5942SOL    HW228506   0.424   6.673   4.226
 5943SOL     OW28507   3.431   4.816   1.314
 5943SOL    HW128508   3.437   4.905   1.357
 5943SOL    HW228509   3.522   4.775   1.307
 5944SOL     OW28510   3.136   0.783   0.262
 5944SOL    HW128511   3.138   0.724   0.182
 5944SOL    HW228512   3.201   0.858   0.249
 5945SOL     OW28513   2.291   0.883   3.725
 5945SOL    HW128514   2.383   0.921   3.723
 5945SOL    HW228515   2.224   0.957   3.731
 5946SOL     OW28516   2.483   5.025   2.358
 5946SOL    HW128517   2.550   4.952   2.370
 5946SOL    HW228518   2.522   5.096   2.299
 5947SOL     OW28519   0.679   3.420   4.115
 5947SOL    HW128520   0.692   3.325   4.143
 5947SOL    HW228521   0.716   3.481   4.185
 5948SOL     OW28522   6.986   0.379   1.384
 5948SOL    HW128523   6.955   0.417   1.297
 5948SOL    HW228524   7.070   0.327   1.370
 5949SOL     OW28525   8.096   6.908   4.280
 5949SOL    HW128526   8.110   6.873   4.187
 5949SOL    HW228527   8.102   7.007   4.280
 5950SOL     OW28528   2.041   2.861   3.797
 5950SOL    HW128529   1.989   2.943   3.774
 5950SOL    HW228530   2.054   2.857   3.896
 5951SOL     OW28531   8.456   7.767   3.680
 5951SOL    HW128532   8.422   7.817   3.759
 5951SOL    HW228533   8.457   7.827   3.600
 5952SOL     OW28534   2.510   1.358   3.603
 5952SOL    HW128535   2.559   1.357   3.516
 5952SOL    HW228536   2.534   1.276   3.655
 5953SOL     OW28537   8.396   0.209   2.763
 5953SOL    HW128538   8.326   0.279   2.748
 5953SOL    HW228539   8.434   0.181   2.675
 5954SOL     OW28540   6.221   7.684   2.195
 5954SOL    HW128541   6.303   7.737   2.174
 5954SOL    HW228542   6.247   7.599   2.242
 5955SOL     OW28543   0.991   4.734   1.706
 5955SOL    HW128544   1.039   4.769   1.786
 5955SOL    HW228545   0.907   4.786   1.693
 5956SOL     OW28546   5.580   7.335   4.021
 5956SOL    HW128547   5.560   7.432   4.033
 5956SOL    HW228548   5.512   7.280   4.069
 5957SOL     OW28549   8.392   4.136   4.273
 5957SOL    HW128550   8.451   4.183   4.208
 5957SOL    HW228551   8.342   4.203   4.328
 5958SOL     OW28552   7.667   8.653   3.899
 5958SOL    HW128553   7.570   8.677   3.902
 5958SOL    HW228554   7.710   8.672   3.987
 5959SOL     OW28555   2.623   3.975   0.584
 5959SOL    HW128556   2.701   3.927   0.626
 5959SOL    HW228557   2.538   3.939   0.622
 5960SOL     OW28558   3.912   1.359   0.687
 5960SOL    HW128559   3.844   1.290   0.662
 5960SOL    HW228560   3.914   1.431   0.618
 5961SOL     OW28561   0.565   5.099   3.307
 5961SOL    HW128562   0.636   5.162   3.278
 5961SOL    HW228563   0.484   5.150   3.336
 5962SOL     OW28564   2.851   7.792   3.508
 5962SOL    HW128565   2.898   7.842   3.581
 5962SOL    HW228566   2.836   7.698   3.537
 5963SOL     OW28567   2.341   8.806   3.110
 5963SOL    HW128568   2.323   8.843   3.019
 5963SOL    HW228569   2.438   8.784   3.118
 5964SOL     OW28570   1.890   3.940   3.650
 5964SOL    HW128571   1.870   4.035   3.676
 5964SOL    HW228572   1.810   3.883   3.667
 5965SOL     OW28573   1.053   8.964   4.316
 5965SOL    HW128574   1.071   9.056   4.350
 5965SOL    HW228575   0.960   8.960   4.280
 5966SOL     OW28576   1.341   8.725   1.125
 5966SOL    HW128577   1.274   8.659   1.160
 5966SOL    HW228578   1.405   8.679   1.064
 5967SOL     OW28579   8.185   5.106   4.026
 5967SOL    HW128580   8.119   5.088   4.099
 5967SOL    HW228581   8.210   5.020   3.982
 5968SOL     OW28582   0.691   5.915   0.746
 5968SOL    HW128583   0.740   5.989   0.792
 5968SOL    HW228584   0.703   5.923   0.647
 5969SOL     OW28585   7.333   8.224   1.275
 5969SOL    HW128586   7.371   8.164   1.205
 5969SOL    HW228587   7.339   8.179   1.364
 5970SOL     OW28588   0.743   7.554   1.654
 5970SOL    HW128589   0.735   7.597   1.564
 5970SOL    HW228590   0.793   7.615   1.715
 5971SOL     OW28591   9.554   3.256   2.705
 5971SOL    HW128592   9.495   3.305   2.769
 5971SOL    HW228593   9.615   3.195   2.755
 5972SOL     OW28594   5.281   9.477   1.286
 5972SOL    HW128595   5.322   9.472   1.195
 5972SOL    HW228596   5.192   9.432   1.285
 5973SOL     OW28597   5.051   1.788   2.247
 5973SOL    HW128598   4.996   1.840   2.314
 5973SOL    HW228599   5.014   1.802   2.156
 5974SOL     OW28600   0.881   4.490   1.669
 5974SOL    HW128601   0.921   4.581   1.681
 5974SOL    HW228602   0.928   4.425   1.727
 5975SOL     OW28603   7.463   0.680   1.113
 5975SOL    HW128604   7.556   0.712   1.131
 5975SOL    HW228605   7.408   0.755   1.075
 5976SOL     OW28606   2.807   3.516   1.000
 5976SOL    HW128607   2.736   3.572   1.042
 5976SOL    HW228608   2.894   3.533   1.047
 5977SOL     OW28609   9.017   4.472   1.339
 5977SOL    HW128610   9.054   4.457   1.247
 5977SOL    HW228611   9.091   4.486   1.403
 5978SOL     OW28612   1.157   2.403   4.259
 5978SOL    HW128613   1.081   2.450   4.213
 5978SOL    HW228614   1.238   2.408   4.202
 5979SOL     OW28615   0.221   2.603   3.122
 5979SOL    HW128616   0.277   2.543   3.065
 5979SOL    HW228617   0.172   2.667   3.063
 5980SOL     OW28618   2.365   3.172   0.867
 5980SOL    HW128619   2.280   3.130   0.834
 5980SOL    HW228620   2.343   3.255   0.917
 5981SOL     OW28621   3.994   7.339   1.742
 5981SOL    HW128622   4.045   7.396   1.806
 5981SOL    HW228623   4.052   7.265   1.709
 5982SOL     OW28624   3.522   0.753   3.889
 5982SOL    HW128625   3.602   0.813   3.898
 5982SOL    HW228626   3.553   0.661   3.864
 5983SOL     OW28627   5.196   8.085   4.312
 5983SOL    HW128628   5.278   8.027   4.316
 5983SOL    HW228629   5.221   8.179   4.335
 5984SOL     OW28630   8.266   0.913   2.781
 5984SOL    HW128631   8.302   1.004   2.800
 5984SOL    HW228632   8.331   0.844   2.814
 5985SOL     OW28633   8.809   8.122   1.872
 5985SOL    HW128634   8.808   8.136   1.971
 5985SOL    HW228635   8.901   8.099   1.842
 5986SOL     OW28636   6.295   9.711   3.336
 5986SOL    HW128637   6.387   9.734   3.305
 5986SOL    HW228638   6.243   9.673   3.260
 5987SOL     OW28639   3.383   0.914   4.068
 5987SOL    HW128640   3.450   0.970   4.117
 5987SOL    HW228641   3.432   0.852   4.007
 5988SOL     OW28642   8.830   4.605   3.255
 5988SOL    HW128643   8.874   4.675   3.200
 5988SOL    HW228644   8.899   4.546   3.297
 5989SOL     OW28645   8.104   8.977   0.392
 5989SOL    HW128646   8.008   8.974   0.419
 5989SOL    HW228647   8.161   8.991   0.473
 5990SOL     OW28648   6.355   0.828   1.677
 5990SOL    HW128649   6.437   0.852   1.729
 5990SOL    HW228650   6.304   0.756   1.726
 5991SOL     OW28651   0.680   3.819   1.001
 5991SOL    HW128652   0.596   3.796   0.953
 5991SOL    HW228653   0.742   3.867   0.940
 5992SOL     OW28654   5.319   1.782   2.294
 5992SOL    HW128655   5.345   1.857   2.355
 5992SOL    HW228656   5.220   1.785   2.277
 5993SOL     OW28657   8.943   6.782   2.028
 5993SOL    HW128658   8.931   6.792   1.930
 5993SOL    HW228659   8.928   6.870   2.073
 5994SOL     OW28660   9.675   5.976   0.756
 5994SOL    HW128661   9.719   6.030   0.828
 5994SOL    HW228662   9.637   5.893   0.797
 5995SOL     OW28663   8.512   9.796   4.303
 5995SOL    HW128664   8.423   9.793   4.258
 5995SOL    HW228665   8.527   9.712   4.354
 5996SOL     OW28666   8.405   6.875   4.087
 5996SOL    HW128667   8.458   6.893   4.004
 5996SOL    HW228668   8.312   6.847   4.062
 5997SOL     OW28669   7.346   9.097   1.374
 5997SOL    HW128670   7.271   9.164   1.372
 5997SOL    HW228671   7.317   9.018   1.428
 5998SOL     OW28672   8.039   2.451   0.559
 5998SOL    HW128673   8.032   2.372   0.498
 5998SOL    HW228674   8.056   2.419   0.652
 5999SOL     OW28675   2.966   8.270   1.561
 5999SOL    HW128676   2.870   8.242   1.553
 5999SOL    HW228677   3.025   8.196   1.529
 6000SOL     OW28678   2.048   6.257   0.331
 6000SOL    HW128679   2.127   6.196   0.337
 6000SOL    HW228680   2.049   6.319   0.410
 6001SOL     OW28681   0.155   8.925   2.559
 6001SOL    HW128682   0.067   8.939   2.513
 6001SOL    HW228683   0.189   8.833   2.538
 6002SOL     OW28684   2.464   6.339   3.616
 6002SOL    HW128685   2.471   6.285   3.700
 6002SOL    HW228686   2.555   6.351   3.576
 6003SOL     OW28687   0.257   8.662   3.313
 6003SOL    HW128688   0.160   8.674   3.332
 6003SOL    HW228689   0.307   8.649   3.399
 6004SOL     OW28690   9.997   3.126   0.077
 6004SOL    HW128691   9.977   3.105   5.615
 6004SOL    HW228692   9.918   3.101   0.133
 6005SOL     OW28693   0.303   2.034   1.025
 6005SOL    HW128694   0.376   1.985   0.978
 6005SOL    HW228695   0.287   1.992   1.115
 6006SOL     OW28696   0.901   5.899   1.900
 6006SOL    HW128697   0.824   5.904   1.962
 6006SOL    HW228698   0.975   5.957   1.934
 6007SOL     OW28699   3.468   3.666   2.291
 6007SOL    HW128700   3.524   3.725   2.349
 6007SOL    HW228701   3.459   3.707   2.201
 6008SOL     OW28702   9.430   3.770   2.647
 6008SOL    HW128703   9.485   3.808   2.572
 6008SOL    HW228704   9.490   3.751   2.725
 6009SOL     OW28705   4.605   9.047   0.505
 6009SOL    HW128706   4.530   9.110   0.486
 6009SOL    HW228707   4.569   8.958   0.530
 6010SOL     OW28708   5.104   7.749   1.980
 6010SOL    HW128709   5.027   7.685   1.969
 6010SOL    HW228710   5.178   7.703   2.028
 6011SOL     OW28711   5.140   0.174   2.042
 6011SOL    HW128712   5.088   0.093   2.016
 6011SOL    HW228713   5.162   0.170   2.140
 6012SOL     OW28714   2.549   0.058   0.343
 6012SOL    HW128715   2.519   0.113   0.265
 6012SOL    HW228716   2.498   0.085   0.425
 6013SOL     OW28717   4.759   7.761   2.573
 6013SOL    HW128718   4.717   7.828   2.512
 6013SOL    HW228719   4.689   7.720   2.630
 6014SOL     OW28720   9.253   0.847   2.358
 6014SOL    HW128721   9.199   0.927   2.382
 6014SOL    HW228722   9.194   0.777   2.317
 6015SOL     OW28723   6.575   6.996   2.250
 6015SOL    HW128724   6.476   7.004   2.240
 6015SOL    HW228725   6.619   7.078   2.214
 6016SOL     OW28726   4.597   4.815   1.500
 6016SOL    HW128727   4.654   4.776   1.573
 6016SOL    HW228728   4.569   4.907   1.525
 6017SOL     OW28729   0.443   0.659   0.446
 6017SOL    HW128730   0.378   0.680   0.373
 6017SOL    HW228731   0.464   0.561   0.445
 6018SOL     OW28732   0.318   5.888   0.175
 6018SOL    HW128733   0.245   5.838   0.222
 6018SOL    HW228734   0.282   5.974   0.139
 6019SOL     OW28735   2.213   0.137   2.561
 6019SOL    HW128736   2.187   0.164   2.468
 6019SOL    HW228737   2.163   0.194   2.627
 6020SOL     OW28738   5.115   8.450   3.260
 6020SOL    HW128739   5.049   8.402   3.203
 6020SOL    HW228740   5.200   8.398   3.265
 6021SOL     OW28741   0.164   2.549   0.145
 6021SOL    HW128742   0.249   2.499   0.124
 6021SOL    HW228743   0.087   2.485   0.146
 6022SOL     OW28744   5.040   2.283   2.720
 6022SOL    HW128745   5.063   2.269   2.816
 6022SOL    HW228746   5.111   2.244   2.662
 6023SOL     OW28747   2.587   9.067   1.738
 6023SOL    HW128748   2.644   9.141   1.773
 6023SOL    HW228749   2.642   8.984   1.728
 6024SOL     OW28750   4.709   9.473   3.794
 6024SOL    HW128751   4.770   9.549   3.818
 6024SOL    HW228752   4.615   9.507   3.791
 6025SOL     OW28753   5.313   1.388   1.371
 6025SOL    HW128754   5.246   1.342   1.313
 6025SOL    HW228755   5.266   1.455   1.429
 6026SOL     OW28756   3.201   9.679   0.265
 6026SOL    HW128757   3.225   9.744   0.337
 6026SOL    HW228758   3.158   9.728   0.188
 6027SOL     OW28759   3.113   5.393   2.624
 6027SOL    HW128760   3.021   5.431   2.622
 6027SOL    HW228761   3.179   5.465   2.646
 6028SOL     OW28762   0.617   7.564   4.249
 6028SOL    HW128763   0.619   7.481   4.306
 6028SOL    HW228764   0.711   7.589   4.225
 6029SOL     OW28765   3.948   0.719   3.793
 6029SOL    HW128766   3.980   0.628   3.820
 6029SOL    HW228767   4.023   0.769   3.750
 6030SOL     OW28768   3.089   9.880   1.442
 6030SOL    HW128769   3.165   9.904   1.382
 6030SOL    HW228770   3.113   9.799   1.496
 6031SOL     OW28771   1.783   4.665   0.589
 6031SOL    HW128772   1.876   4.638   0.566
 6031SOL    HW228773   1.722   4.645   0.512
 6032SOL     OW28774   0.884   4.427   1.171
 6032SOL    HW128775   0.978   4.433   1.204
 6032SOL    HW228776   0.821   4.437   1.248
 6033SOL     OW28777   7.614   1.134   3.573
 6033SOL    HW128778   7.648   1.168   3.486
 6033SOL    HW228779   7.679   1.068   3.611
 6034SOL     OW28780   4.969   3.362   2.454
 6034SOL    HW128781   4.901   3.435   2.448
 6034SOL    HW228782   4.958   3.312   2.540
 6035SOL     OW28783   3.113   4.998   2.329
 6035SOL    HW128784   3.064   4.994   2.242
 6035SOL    HW228785   3.142   5.092   2.345
 6036SOL     OW28786   8.686   1.589   0.631
 6036SOL    HW128787   8.638   1.569   0.545
 6036SOL    HW228788   8.739   1.510   0.659
 6037SOL     OW28789   3.967   1.526   1.577
 6037SOL    HW128790   4.006   1.483   1.496
 6037SOL    HW228791   3.914   1.607   1.549
 6038SOL     OW28792   2.376   9.286   2.670
 6038SOL    HW128793   2.384   9.299   2.571
 6038SOL    HW228794   2.289   9.242   2.690
 6039SOL     OW28795   0.057   2.236   0.731
 6039SOL    HW128796   0.079   2.146   0.693
 6039SOL    HW228797   0.123   2.303   0.696
 6040SOL     OW28798   8.882   1.406   2.513
 6040SOL    HW128799   8.835   1.490   2.541
 6040SOL    HW228800   8.853   1.381   2.421
 6041SOL     OW28801   5.672   1.120   3.013
 6041SOL    HW128802   5.671   1.145   3.110
 6041SOL    HW228803   5.689   1.022   3.004
 6042SOL     OW28804   0.101   1.683   3.793
 6042SOL    HW128805   0.181   1.732   3.758
 6042SOL    HW228806   0.044   1.746   3.845
 6043SOL     OW28807   5.187   0.628   2.958
 6043SOL    HW128808   5.125   0.555   2.929
 6043SOL    HW228809   5.263   0.589   3.009
 6044SOL     OW28810   3.104   9.677   2.888
 6044SOL    HW128811   3.204   9.680   2.889
 6044SOL    HW228812   3.072   9.671   2.794
 6045SOL     OW28813   3.593   8.139   2.248
 6045SOL    HW128814   3.658   8.088   2.192
 6045SOL    HW228815   3.517   8.080   2.275
 6046SOL     OW28816   3.043   7.088   2.745
 6046SOL    HW128817   3.098   7.005   2.739
 6046SOL    HW228818   3.020   7.120   2.653
 6047SOL     OW28819   1.987   7.683   0.197
 6047SOL    HW128820   2.053   7.630   0.251
 6047SOL    HW228821   1.907   7.702   0.254
 6048SOL     OW28822   3.670   4.268   0.552
 6048SOL    HW128823   3.612   4.307   0.480
 6048SOL    HW228824   3.619   4.197   0.600
 6049SOL     OW28825   7.635   3.083   0.152
 6049SOL    HW128826   7.690   3.167   0.149
 6049SOL    HW228827   7.653   3.035   0.239
 6050SOL     OW28828   0.522   0.550   1.153
 6050SOL    HW128829   0.440   0.603   1.172
 6050SOL    HW228830   0.537   0.546   1.054
 6051SOL     OW28831   4.156   9.060   3.465
 6051SOL    HW128832   4.211   9.116   3.527
 6051SOL    HW228833   4.077   9.113   3.434
 6052SOL     OW28834   3.762   7.544   2.462
 6052SOL    HW128835   3.697   7.492   2.406
 6052SOL    HW228836   3.806   7.614   2.405
 6053SOL     OW28837   7.441   2.677   2.725
 6053SOL    HW128838   7.511   2.684   2.654
 6053SOL    HW228839   7.458   2.744   2.797
 6054SOL     OW28840   2.685   1.949   0.493
 6054SOL    HW128841   2.659   1.993   0.579
 6054SOL    HW228842   2.750   2.008   0.444
 6055SOL     OW28843   3.050   9.192   0.429
 6055SOL    HW128844   3.073   9.289   0.415
 6055SOL    HW228845   2.999   9.159   0.350
 6056SOL     OW28846   0.167   0.479   1.788
 6056SOL    HW128847   0.217   0.439   1.865
 6056SOL    HW228848   0.207   0.567   1.764
 6057SOL     OW28849   8.889   5.170   1.012
 6057SOL    HW128850   8.951   5.095   1.037
 6057SOL    HW228851   8.838   5.145   0.930
 6058SOL     OW28852   3.670   3.828   0.723
 6058SOL    HW128853   3.696   3.777   0.641
 6058SOL    HW228854   3.748   3.881   0.756
 6059SOL     OW28855   6.785   8.166   2.708
 6059SOL    HW128856   6.827   8.200   2.792
 6059SOL    HW228857   6.833   8.083   2.679
 6060SOL     OW28858   3.037   2.779   0.753
 6060SOL    HW128859   3.128   2.765   0.791
 6060SOL    HW228860   2.971   2.793   0.828
 6061SOL     OW28861   7.492   3.113   0.958
 6061SOL    HW128862   7.586   3.141   0.977
 6061SOL    HW228863   7.464   3.150   0.870
 6062SOL     OW28864   8.154   2.870   0.312
 6062SOL    HW128865   8.158   2.935   0.388
 6062SOL    HW228866   8.169   2.778   0.347
 6063SOL     OW28867   0.936   5.496   4.310
 6063SOL    HW128868   0.847   5.462   4.281
 6063SOL    HW228869   0.923   5.577   4.368
 6064SOL     OW28870   0.694   1.584   4.061
 6064SOL    HW128871   0.702   1.595   3.962
 6064SOL    HW228872   0.752   1.507   4.091
 6065SOL     OW28873   3.044   2.920   3.988
 6065SOL    HW128874   3.009   2.844   3.933
 6065SOL    HW228875   2.972   2.989   3.999
 6066SOL     OW28876   8.696   0.886   1.099
 6066SOL    HW128877   8.625   0.870   1.169
 6066SOL    HW228878   8.739   0.800   1.075
 6067SOL     OW28879   1.014   9.755   4.256
 6067SOL    HW128880   0.980   9.666   4.226
 6067SOL    HW228881   0.937   9.817   4.267
 6068SOL     OW28882   5.022   1.260   3.183
 6068SOL    HW128883   4.958   1.334   3.201
 6068SOL    HW228884   5.072   1.278   3.098
 6069SOL     OW28885   0.970   5.933   3.217
 6069SOL    HW128886   1.064   5.904   3.195
 6069SOL    HW228887   0.915   5.852   3.240
 6070SOL     OW28888   2.933   9.065   3.967
 6070SOL    HW128889   2.949   9.120   3.886
 6070SOL    HW228890   2.849   9.094   4.013
 6071SOL     OW28891   0.735   3.537   2.021
 6071SOL    HW128892   0.717   3.474   1.946
 6071SOL    HW228893   0.728   3.631   1.987
 6072SOL     OW28894   9.216   1.458   1.008
 6072SOL    HW128895   9.135   1.498   0.964
 6072SOL    HW228896   9.220   1.360   0.986
 6073SOL     OW28897   2.199   3.115   0.516
 6073SOL    HW128898   2.199   3.059   0.433
 6073SOL    HW228899   2.262   3.192   0.504
 6074SOL     OW28900   7.533   2.413   0.431
 6074SOL    HW128901   7.624   2.373   0.418
 6074SOL    HW228902   7.501   2.453   0.346
 6075SOL     OW28903   5.072   7.950   2.348
 6075SOL    HW128904   5.118   8.016   2.407
 6075SOL    HW228905   5.132   7.871   2.333
 6076SOL     OW28906   1.805   6.789   2.011
 6076SOL    HW128907   1.833   6.840   1.930
 6076SOL    HW228908   1.785   6.695   1.986
 6077SOL     OW28909   9.075   2.581   1.915
 6077SOL    HW128910   9.056   2.495   1.867
 6077SOL    HW228911   9.170   2.607   1.901
 6078SOL     OW28912   9.082   4.039   3.886
 6078SOL    HW128913   9.012   3.988   3.836
 6078SOL    HW228914   9.098   3.995   3.975
 6079SOL     OW28915   3.606   2.648   4.071
 6079SOL    HW128916   3.520   2.649   4.020
 6079SOL    HW228917   3.623   2.555   4.105
 6080SOL     OW28918   9.593   3.817   3.275
 6080SOL    HW128919   9.593   3.717   3.275
 6080SOL    HW228920   9.555   3.851   3.361
 6081SOL     OW28921   8.219   3.142   0.070
 6081SOL    HW128922   8.288   3.086   0.116
 6081SOL    HW228923   8.232   3.137   5.605
 6082SOL     OW28924   1.285   6.507   3.598
 6082SOL    HW128925   1.205   6.527   3.654
 6082SOL    HW228926   1.263   6.434   3.534
 6083SOL     OW28927   4.437   2.952   2.648
 6083SOL    HW128928   4.430   2.865   2.697
 6083SOL    HW228929   4.447   2.935   2.550
 6084SOL     OW28930   1.913   5.953   2.314
 6084SOL    HW128931   1.967   5.920   2.391
 6084SOL    HW228932   1.958   5.929   2.228
 6085SOL     OW28933   8.808   4.326   1.453
 6085SOL    HW128934   8.897   4.366   1.428
 6085SOL    HW228935   8.740   4.354   1.386
 6086SOL     OW28936   2.269   1.466   3.511
 6086SOL    HW128937   2.354   1.414   3.523
 6086SOL    HW228938   2.226   1.479   3.600
 6087SOL     OW28939   0.972   9.185   0.350
 6087SOL    HW128940   0.994   9.093   0.320
 6087SOL    HW228941   0.873   9.196   0.357
 6088SOL     OW28942   2.967   5.669   3.916
 6088SOL    HW128943   2.949   5.736   3.844
 6088SOL    HW228944   2.888   5.608   3.926
 6089SOL     OW28945   0.768   5.710   0.920
 6089SOL    HW128946   0.733   5.770   0.848
 6089SOL    HW228947   0.761   5.615   0.892
 6090SOL     OW28948   1.341   9.431   0.730
 6090SOL    HW128949   1.279   9.358   0.759
 6090SOL    HW228950   1.330   9.510   0.790
 6091SOL     OW28951   9.540   5.364   1.228
 6091SOL    HW128952   9.579   5.312   1.152
 6091SOL    HW228953   9.528   5.304   1.307
 6092SOL     OW28954   0.798   9.615   1.224
 6092SOL    HW128955   0.846   9.703   1.220
 6092SOL    HW228956   0.839   9.558   1.295
 6093SOL     OW28957   1.497   0.369   2.823
 6093SOL    HW128958   1.411   0.380   2.873
 6093SOL    HW228959   1.573   0.372   2.888
 6094SOL     OW28960   1.936   6.265   3.321
 6094SOL    HW128961   2.017   6.224   3.278
 6094SOL    HW228962   1.854   6.214   3.295
 6095SOL     OW28963   8.686   8.295   4.430
 6095SOL    HW128964   8.738   8.234   4.371
 6095SOL    HW228965   8.717   8.284   4.524
 6096SOL     OW28966   1.535   4.270   3.696
 6096SOL    HW128967   1.452   4.254   3.644
 6096SOL    HW228968   1.512   4.281   3.793
 6097SOL     OW28969   1.549   4.059   1.681
 6097SOL    HW128970   1.481   4.097   1.618
 6097SOL    HW228971   1.630   4.118   1.682
 6098SOL     OW28972   8.883   3.062   2.296
 6098SOL    HW128973   8.945   3.079   2.372
 6098SOL    HW228974   8.821   2.987   2.320
 6099SOL     OW28975   2.403   7.860   0.489
 6099SOL    HW128976   2.409   7.761   0.483
 6099SOL    HW228977   2.432   7.890   0.580
 6100SOL     OW28978   1.258   0.943   4.005
 6100SOL    HW128979   1.225   0.978   3.917
 6100SOL    HW228980   1.202   0.982   4.078
 6101SOL     OW28981   9.003   7.835   0.481
 6101SOL    HW128982   8.998   7.854   0.579
 6101SOL    HW228983   8.998   7.921   0.430
 6102SOL     OW28984   3.923   7.038   1.305
 6102SOL    HW128985   3.841   6.987   1.282
 6102SOL    HW228986   3.981   7.047   1.224
 6103SOL     OW28987   7.784   6.760   3.444
 6103SOL    HW128988   7.721   6.830   3.477
 6103SOL    HW228989   7.789   6.764   3.344
 6104SOL     OW28990   3.876   3.993   0.818
 6104SOL    HW128991   3.834   4.084   0.823
 6104SOL    HW228992   3.948   3.986   0.887
 6105SOL     OW28993   8.734   2.495   2.484
 6105SOL    HW128994   8.652   2.545   2.512
 6105SOL    HW228995   8.807   2.559   2.462
 6106SOL     OW28996   7.355   7.469   1.556
 6106SOL    HW128997   7.279   7.514   1.508
 6106SOL    HW228998   7.399   7.535   1.617
 6107SOL     OW28999   8.303   5.721   2.066
 6107SOL    HW129000   8.392   5.750   2.101
 6107SOL    HW229001   8.316   5.669   1.981
 6108SOL     OW29002   9.988   4.596   2.116
 6108SOL    HW129003   9.924   4.523   2.092
 6108SOL    HW229004   0.076   4.579   2.072
 6109SOL     OW29005   8.722   6.057   2.666
 6109SOL    HW129006   8.750   6.038   2.760
 6109SOL    HW229007   8.648   5.995   2.640
 6110SOL     OW29008   6.773   0.086   3.044
 6110SOL    HW129009   6.690   0.140   3.060
 6110SOL    HW229010   6.827   0.083   3.129
 6111SOL     OW29011   4.901   9.661   3.860
 6111SOL    HW129012   4.898   9.761   3.860
 6111SOL    HW229013   4.986   9.631   3.815
 6112SOL     OW29014   3.261   0.103   3.614
 6112SOL    HW129015   3.227   0.034   3.550
 6112SOL    HW229016   3.309   0.058   3.690
 6113SOL     OW29017   7.052   0.918   0.801
 6113SOL    HW129018   6.979   0.850   0.803
 6113SOL    HW229019   7.087   0.927   0.707
 6114SOL     OW29020   0.342   5.273   0.271
 6114SOL    HW129021   0.277   5.275   0.347
 6114SOL    HW229022   0.408   5.199   0.286
 6115SOL     OW29023   2.687   2.361   2.543
 6115SOL    HW129024   2.610   2.384   2.603
 6115SOL    HW229025   2.760   2.428   2.555
 6116SOL     OW29026   7.178   5.435   4.163
 6116SOL    HW129027   7.155   5.351   4.212
 6116SOL    HW229028   7.209   5.411   4.071
 6117SOL     OW29029   6.898   0.723   2.232
 6117SOL    HW129030   6.898   0.660   2.310
 6117SOL    HW229031   6.854   0.680   2.154
 6118SOL     OW29032   5.136   7.721   2.649
 6118SOL    HW129033   5.088   7.696   2.566
 6118SOL    HW229034   5.230   7.747   2.627
 6119SOL     OW29035   1.087   0.663   1.044
 6119SOL    HW129036   1.032   0.606   1.105
 6119SOL    HW229037   1.037   0.677   0.958
 6120SOL     OW29038   2.693   2.547   1.557
 6120SOL    HW129039   2.742   2.465   1.589
 6120SOL    HW229040   2.758   2.607   1.510
 6121SOL     OW29041   0.272   6.372   3.445
 6121SOL    HW129042   0.281   6.426   3.528
 6121SOL    HW229043   0.198   6.409   3.389
 6122SOL     OW29044   9.251   0.430   2.406
 6122SOL    HW129045   9.216   0.402   2.495
 6122SOL    HW229046   9.344   0.465   2.416
 6123SOL     OW29047   8.152   8.776   3.376
 6123SOL    HW129048   8.192   8.708   3.315
 6123SOL    HW229049   8.223   8.839   3.406
 6124SOL     OW29050   7.945   5.390   2.796
 6124SOL    HW129051   7.902   5.452   2.861
 6124SOL    HW229052   7.990   5.443   2.724
 6125SOL     OW29053   8.971   0.184   0.827
 6125SOL    HW129054   9.005   0.257   0.768
 6125SOL    HW229055   8.969   0.216   0.922
 6126SOL     OW29056   8.611   9.682   3.410
 6126SOL    HW129057   8.611   9.624   3.328
 6126SOL    HW229058   8.702   9.722   3.422
 6127SOL     OW29059   9.692   6.040   1.375
 6127SOL    HW129060   9.741   6.077   1.454
 6127SOL    HW229061   9.703   5.941   1.373
 6128SOL     OW29062   9.258   8.778   3.556
 6128SOL    HW129063   9.218   8.844   3.619
 6128SOL    HW229064   9.306   8.707   3.608
 6129SOL     OW29065   6.386   9.305   3.044
 6129SOL    HW129066   6.373   9.218   3.092
 6129SOL    HW229067   6.478   9.307   3.005
 6130SOL     OW29068   2.443   0.992   0.825
 6130SOL    HW129069   2.444   1.053   0.904
 6130SOL    HW229070   2.348   0.969   0.801
 6131SOL     OW29071   0.717   1.905   2.842
 6131SOL    HW129072   0.625   1.944   2.834
 6131SOL    HW229073   0.784   1.973   2.812
 6132SOL     OW29074   3.880   8.534   0.382
 6132SOL    HW129075   3.900   8.439   0.405
 6132SOL    HW229076   3.965   8.586   0.377
 6133SOL     OW29077   3.393   4.086   0.319
 6133SOL    HW129078   3.417   4.179   0.347
 6133SOL    HW229079   3.459   4.021   0.358
 6134SOL     OW29080   9.828   1.881   3.502
 6134SOL    HW129081   9.910   1.910   3.550
 6134SOL    HW229082   9.783   1.961   3.461
 6135SOL     OW29083   8.569   9.021   2.262
 6135SOL    HW129084   8.629   9.064   2.329
 6135SOL    HW229085   8.614   8.942   2.222
 6136SOL     OW29086   5.112   0.783   3.612
 6136SOL    HW129087   5.196   0.728   3.613
 6136SOL    HW229088   5.134   0.876   3.643
 6137SOL     OW29089   9.295   4.038   3.291
 6137SOL    HW129090   9.375   4.097   3.296
 6137SOL    HW229091   9.247   4.054   3.204
 6138SOL     OW29092   3.398   9.067   3.452
 6138SOL    HW129093   3.324   9.133   3.463
 6138SOL    HW229094   3.458   9.097   3.378
 6139SOL     OW29095   3.603   8.250   4.044
 6139SOL    HW129096   3.555   8.167   4.072
 6139SOL    HW229097   3.688   8.259   4.096
 6140SOL     OW29098   6.493   0.806   0.892
 6140SOL    HW129099   6.548   0.722   0.895
 6140SOL    HW229100   6.554   0.885   0.886
 6141SOL     OW29101   7.859   4.241   0.414
 6141SOL    HW129102   7.948   4.212   0.448
 6141SOL    HW229103   7.792   4.235   0.488
 6142SOL     OW29104   1.779   6.918   4.060
 6142SOL    HW129105   1.854   6.864   4.098
 6142SOL    HW229106   1.812   6.970   3.981
 6143SOL     OW29107   5.273   8.223   3.568
 6143SOL    HW129108   5.218   8.170   3.634
 6143SOL    HW229109   5.237   8.316   3.562
 6144SOL     OW29110   7.762   2.266   0.398
 6144SOL    HW129111   7.859   2.274   0.375
 6144SOL    HW229112   7.728   2.177   0.369
 6145SOL     OW29113   8.759   5.068   0.478
 6145SOL    HW129114   8.663   5.075   0.506
 6145SOL    HW229115   8.770   5.108   0.387
 6146SOL     OW29116   0.942   8.891   2.422
 6146SOL    HW129117   0.885   8.878   2.503
 6146SOL    HW229118   0.952   8.989   2.404
 6147SOL     OW29119   2.993   4.176   3.027
 6147SOL    HW129120   2.971   4.086   2.990
 6147SOL    HW229121   2.974   4.246   2.959
 6148SOL     OW29122   0.517   2.845   1.126
 6148SOL    HW129123   0.473   2.828   1.038
 6148SOL    HW229124   0.512   2.762   1.182
 6149SOL     OW29125   8.101   2.044   0.533
 6149SOL    HW129126   8.052   2.069   0.617
 6149SOL    HW229127   8.079   1.949   0.510
 6150SOL     OW29128   8.249   6.104   1.176
 6150SOL    HW129129   8.245   6.156   1.090
 6150SOL    HW229130   8.326   6.137   1.231
 6151SOL     OW29131   9.455   8.811   2.651
 6151SOL    HW129132   9.537   8.866   2.636
 6151SOL    HW229133   9.477   8.714   2.639
 6152SOL     OW29134   2.393   5.450   2.518
 6152SOL    HW129135   2.452   5.407   2.587
 6152SOL    HW229136   2.336   5.380   2.475
 6153SOL     OW29137   0.799   0.427   0.722
 6153SOL    HW129138   0.830   0.349   0.668
 6153SOL    HW229139   0.791   0.507   0.663
 6154SOL     OW29140   0.551   6.470   1.465
 6154SOL    HW129141   0.586   6.402   1.401
 6154SOL    HW229142   0.568   6.562   1.429
 6155SOL     OW29143   0.149   7.296   3.818
 6155SOL    HW129144   0.139   7.304   3.917
 6155SOL    HW229145   0.158   7.199   3.793
 6156SOL     OW29146   4.173   1.418   1.995
 6156SOL    HW129147   4.157   1.477   1.916
 6156SOL    HW229148   4.109   1.442   2.068
 6157SOL     OW29149   3.753   8.872   0.236
 6157SOL    HW129150   3.661   8.873   0.276
 6157SOL    HW229151   3.767   8.786   0.188
 6158SOL     OW29152   3.948   4.243   1.397
 6158SOL    HW129153   3.884   4.168   1.381
 6158SOL    HW229154   3.920   4.295   1.477
 6159SOL     OW29155   1.147   4.262   0.911
 6159SOL    HW129156   1.053   4.236   0.932
 6159SOL    HW229157   1.160   4.359   0.935
 6160SOL     OW29158   9.853   1.397   4.022
 6160SOL    HW129159   9.815   1.315   4.065
 6160SOL    HW229160   9.854   1.385   3.923
 6161SOL     OW29161   9.242   8.389   3.341
 6161SOL    HW129162   9.234   8.311   3.279
 6161SOL    HW229163   9.332   8.388   3.385
 6162SOL     OW29164   9.131   7.916   3.958
 6162SOL    HW129165   9.043   7.883   3.993
 6162SOL    HW229166   9.205   7.877   4.013
 6163SOL     OW29167   2.793   5.675   2.409
 6163SOL    HW129168   2.778   5.762   2.455
 6163SOL    HW229169   2.715   5.655   2.349
 6164SOL     OW29170   9.621   9.771   2.902
 6164SOL    HW129171   9.628   9.671   2.905
 6164SOL    HW229172   9.619   9.807   2.995
 6165SOL     OW29173   0.725   6.736   0.560
 6165SOL    HW129174   0.698   6.650   0.605
 6165SOL    HW229175   0.696   6.733   0.465
 6166SOL     OW29176   7.438   0.868   4.178
 6166SOL    HW129177   7.406   0.915   4.096
 6166SOL    HW229178   7.538   0.873   4.183
 6167SOL     OW29179   1.317   5.441   3.441
 6167SOL    HW129180   1.251   5.475   3.508
 6167SOL    HW229181   1.326   5.342   3.451
 6168SOL     OW29182   8.619   6.994   0.808
 6168SOL    HW129183   8.622   6.996   0.908
 6168SOL    HW229184   8.531   7.031   0.777
 6169SOL     OW29185   9.058   8.980   1.459
 6169SOL    HW129186   9.061   9.045   1.383
 6169SOL    HW229187   9.107   9.018   1.537
 6170SOL     OW29188   9.149   9.897   1.212
 6170SOL    HW129189   9.150   9.849   1.125
 6170SOL    HW229190   9.241   9.927   1.236
 6171SOL     OW29191   9.559   2.950   0.856
 6171SOL    HW129192   9.469   2.911   0.836
 6171SOL    HW229193   9.630   2.882   0.838
 6172SOL     OW29194   0.678   1.547   0.452
 6172SOL    HW129195   0.594   1.533   0.505
 6172SOL    HW229196   0.730   1.623   0.491
 6173SOL     OW29197   9.252   0.876   2.986
 6173SOL    HW129198   9.245   0.974   2.968
 6173SOL    HW229199   9.348   0.849   2.989
 6174SOL     OW29200   3.963   8.519   1.704
 6174SOL    HW129201   3.943   8.544   1.610
 6174SOL    HW229202   3.957   8.420   1.715
 6175SOL     OW29203   3.852   0.921   1.682
 6175SOL    HW129204   3.882   0.863   1.606
 6175SOL    HW229205   3.793   0.994   1.647
 6176SOL     OW29206   5.109   3.577   0.358
 6176SOL    HW129207   5.071   3.669   0.354
 6176SOL    HW229208   5.091   3.537   0.447
 6177SOL     OW29209   8.577   1.302   1.362
 6177SOL    HW129210   8.623   1.386   1.334
 6177SOL    HW229211   8.485   1.300   1.323
 6178SOL     OW29212   9.261   2.833   3.480
 6178SOL    HW129213   9.175   2.883   3.481
 6178SOL    HW229214   9.254   2.752   3.538
 6179SOL     OW29215   8.844   5.900   0.551
 6179SOL    HW129216   8.927   5.932   0.597
 6179SOL    HW229217   8.771   5.968   0.563
 6180SOL     OW29218   8.657   4.504   0.078
 6180SOL    HW129219   8.688   4.412   0.100
 6180SOL    HW229220   8.659   4.517   5.612
 6181SOL     OW29221   2.423   0.995   1.914
 6181SOL    HW129222   2.390   0.902   1.929
 6181SOL    HW229223   2.356   1.060   1.951
 6182SOL     OW29224   7.730   6.438   3.415
 6182SOL    HW129225   7.675   6.382   3.477
 6182SOL    HW229226   7.697   6.533   3.418
 6183SOL     OW29227   9.282   8.038   2.849
 6183SOL    HW129228   9.218   8.007   2.779
 6183SOL    HW229229   9.232   8.063   2.931
 6184SOL     OW29230   9.026   2.169   2.995
 6184SOL    HW129231   8.979   2.255   2.974
 6184SOL    HW229232   9.069   2.134   2.912
 6185SOL     OW29233   3.466   5.118   4.150
 6185SOL    HW129234   3.377   5.078   4.126
 6185SOL    HW229235   3.466   5.215   4.128
 6186SOL     OW29236   4.748   1.091   2.470
 6186SOL    HW129237   4.845   1.079   2.446
 6186SOL    HW229238   4.740   1.101   2.569
 6187SOL     OW29239   2.400   2.806   1.900
 6187SOL    HW129240   2.487   2.848   1.872
 6187SOL    HW229241   2.395   2.803   2.000
 6188SOL     OW29242   7.421   4.683   0.730
 6188SOL    HW129243   7.360   4.604   0.739
 6188SOL    HW229244   7.413   4.721   0.637
 6189SOL     OW29245   9.672   7.375   1.091
 6189SOL    HW129246   9.760   7.356   1.134
 6189SOL    HW229247   9.602   7.315   1.130
 6190SOL     OW29248   3.393   0.196   3.956
 6190SOL    HW129249   3.319   0.258   3.934
 6190SOL    HW229250   3.424   0.212   4.049
 6191SOL     OW29251   9.077   0.139   3.650
 6191SOL    HW129252   9.047   0.199   3.576
 6191SOL    HW229253   9.028   0.161   3.734
 6192SOL     OW29254   2.043   5.344   2.594
 6192SOL    HW129255   2.082   5.296   2.672
 6192SOL    HW229256   1.943   5.345   2.602
 6193SOL     OW29257   3.174   5.050   0.954
 6193SOL    HW129258   3.083   5.012   0.968
 6193SOL    HW229259   3.167   5.140   0.910
 6194SOL     OW29260   1.727   4.537   4.271
 6194SOL    HW129261   1.750   4.521   4.175
 6194SOL    HW229262   1.660   4.611   4.278
 6195SOL     OW29263   0.529   5.835   4.373
 6195SOL    HW129264   0.494   5.859   4.464
 6195SOL    HW229265   0.453   5.826   4.309
 6196SOL     OW29266   4.098   8.435   3.204
 6196SOL    HW129267   4.185   8.388   3.221
 6196SOL    HW229268   4.073   8.488   3.285
 6197SOL     OW29269   4.168   3.135   1.578
 6197SOL    HW129270   4.132   3.047   1.548
 6197SOL    HW229271   4.239   3.121   1.648
 6198SOL     OW29272   9.590   5.925   3.240
 6198SOL    HW129273   9.497   5.907   3.209
 6198SOL    HW229274   9.630   5.840   3.276
 6199SOL     OW29275   3.310   7.082   0.630
 6199SOL    HW129276   3.223   7.044   0.598
 6199SOL    HW229277   3.314   7.179   0.605
 6200SOL     OW29278   3.129   2.565   3.427
 6200SOL    HW129279   3.057   2.497   3.411
 6200SOL    HW229280   3.183   2.576   3.344
 6201SOL     OW29281   2.650   7.339   2.381
 6201SOL    HW129282   2.626   7.247   2.412
 6201SOL    HW229283   2.670   7.336   2.283
 6202SOL     OW29284   2.027   4.016   0.160
 6202SOL    HW129285   2.111   4.062   0.132
 6202SOL    HW229286   1.967   4.081   0.207
 6203SOL     OW29287   3.260   0.864   2.778
 6203SOL    HW129288   3.360   0.875   2.785
 6203SOL    HW229289   3.226   0.920   2.702
 6204SOL     OW29290   4.968   0.073   2.769
 6204SOL    HW129291   4.935   0.148   2.713
 6204SOL    HW229292   5.059   0.045   2.737
 6205SOL     OW29293   2.252   8.445   2.662
 6205SOL    HW129294   2.253   8.352   2.699
 6205SOL    HW229295   2.164   8.487   2.680
 6206SOL     OW29296   1.198   0.365   0.268
 6206SOL    HW129297   1.212   0.401   0.360
 6206SOL    HW229298   1.109   0.319   0.263
 6207SOL     OW29299   3.381   6.662   1.712
 6207SOL    HW129300   3.415   6.578   1.670
 6207SOL    HW229301   3.436   6.739   1.679
 6208SOL     OW29302   3.018   8.054   2.284
 6208SOL    HW129303   2.978   7.963   2.290
 6208SOL    HW229304   3.087   8.055   2.211
 6209SOL     OW29305   0.847   9.714   3.951
 6209SOL    HW129306   0.935   9.741   3.911
 6209SOL    HW229307   0.776   9.716   3.880
 6210SOL     OW29308   9.482   5.053   2.390
 6210SOL    HW129309   9.440   4.990   2.455
 6210SOL    HW229310   9.565   5.011   2.352
 6211SOL     OW29311   6.965   6.889   3.659
 6211SOL    HW129312   7.012   6.878   3.571
 6211SOL    HW229313   6.876   6.844   3.655
 6212SOL     OW29314   3.601   3.816   2.478
 6212SOL    HW129315   3.530   3.814   2.549
 6212SOL    HW229316   3.686   3.852   2.517
 6213SOL     OW29317   3.942   8.249   3.060
 6213SOL    HW129318   3.935   8.275   2.964
 6213SOL    HW229319   4.004   8.311   3.107
 6214SOL     OW29320   8.244   1.869   0.891
 6214SOL    HW129321   8.224   1.945   0.953
 6214SOL    HW229322   8.279   1.791   0.944
 6215SOL     OW29323   7.451   9.457   1.134
 6215SOL    HW129324   7.353   9.435   1.133
 6215SOL    HW229325   7.494   9.414   1.213
 6216SOL     OW29326   2.774   2.185   2.126
 6216SOL    HW129327   2.870   2.155   2.125
 6216SOL    HW229328   2.716   2.108   2.152
 6217SOL     OW29329   5.059   7.576   1.329
 6217SOL    HW129330   5.148   7.568   1.374
 6217SOL    HW229331   5.062   7.650   1.262
 6218SOL     OW29332   0.710   4.502   3.589
 6218SOL    HW129333   0.792   4.445   3.595
 6218SOL    HW229334   0.635   4.449   3.551
 6219SOL     OW29335   8.323   9.215   2.517
 6219SOL    HW129336   8.377   9.247   2.595
 6219SOL    HW229337   8.369   9.241   2.432
 6220SOL     OW29338   6.572   0.775   2.427
 6220SOL    HW129339   6.632   0.845   2.389
 6220SOL    HW229340   6.529   0.724   2.353
 6221SOL     OW29341   1.380   2.227   2.556
 6221SOL    HW129342   1.394   2.317   2.596
 6221SOL    HW229343   1.431   2.221   2.470
 6222SOL     OW29344   0.876   1.995   0.426
 6222SOL    HW129345   0.860   1.900   0.454
 6222SOL    HW229346   0.819   2.056   0.480
 6223SOL     OW29347   7.967   4.427   0.879
 6223SOL    HW129348   7.984   4.464   0.971
 6223SOL    HW229349   7.919   4.496   0.824
 6224SOL     OW29350   4.189   2.499   1.088
 6224SOL    HW129351   4.213   2.511   1.184
 6224SOL    HW229352   4.273   2.490   1.034
 6225SOL     OW29353   7.938   0.644   2.743
 6225SOL    HW129354   8.022   0.624   2.793
 6225SOL    HW229355   7.954   0.718   2.678
 6226SOL     OW29356   3.622   9.814   1.442
 6226SOL    HW129357   3.610   9.830   1.344
 6226SOL    HW229358   3.541   9.769   1.479
 6227SOL     OW29359   1.915   4.718   1.133
 6227SOL    HW129360   2.006   4.726   1.093
 6227SOL    HW229361   1.898   4.796   1.193
 6228SOL     OW29362   9.905   6.462   0.128
 6228SOL    HW129363   9.898   6.562   0.124
 6228SOL    HW229364   9.888   6.424   0.037
 6229SOL     OW29365   0.223   1.186   1.688
 6229SOL    HW129366   0.172   1.138   1.760
 6229SOL    HW229367   0.222   1.284   1.706
 6230SOL     OW29368   0.533   7.627   3.483
 6230SOL    HW129369   0.558   7.723   3.495
 6230SOL    HW229370   0.606   7.568   3.517
 6231SOL     OW29371   4.472   1.143   4.276
 6231SOL    HW129372   4.551   1.144   4.216
 6231SOL    HW229373   4.494   1.095   4.361
 6232SOL     OW29374   5.063   2.845   3.344
 6232SOL    HW129375   4.978   2.793   3.355
 6232SOL    HW229376   5.045   2.929   3.294
 6233SOL     OW29377   3.859   0.073   2.530
 6233SOL    HW129378   3.919   9.993   2.518
 6233SOL    HW229379   3.914   0.150   2.565
 6234SOL     OW29380   1.754   5.644   0.235
 6234SOL    HW129381   1.818   5.690   0.173
 6234SOL    HW229382   1.709   5.569   0.186
 6235SOL     OW29383   2.143   2.618   3.704
 6235SOL    HW129384   2.068   2.573   3.656
 6235SOL    HW229385   2.111   2.707   3.738
 6236SOL     OW29386   2.733   4.582   3.701
 6236SOL    HW129387   2.752   4.519   3.626
 6236SOL    HW229388   2.773   4.546   3.785
 6237SOL     OW29389   8.769   2.292   2.679
 6237SOL    HW129390   8.764   2.356   2.602
 6237SOL    HW229391   8.813   2.207   2.649
 6238SOL     OW29392   8.537   6.860   1.279
 6238SOL    HW129393   8.519   6.905   1.367
 6238SOL    HW229394   8.452   6.827   1.240
 6239SOL     OW29395   9.486   6.892   3.270
 6239SOL    HW129396   9.477   6.824   3.198
 6239SOL    HW229397   9.533   6.973   3.235
 6240SOL     OW29398   8.928   5.003   4.149
 6240SOL    HW129399   9.021   5.033   4.129
 6240SOL    HW229400   8.868   5.082   4.157
 6241SOL     OW29401   4.361   5.984   1.441
 6241SOL    HW129402   4.413   6.063   1.475
 6241SOL    HW229403   4.275   6.015   1.403
 6242SOL     OW29404   4.616   7.180   2.410
 6242SOL    HW129405   4.519   7.198   2.426
 6242SOL    HW229406   4.635   7.083   2.424
 6243SOL     OW29407   9.767   7.441   0.146
 6243SOL    HW129408   9.696   7.502   0.181
 6243SOL    HW229409   9.813   7.396   0.222
 6244SOL     OW29410   2.510   2.347   1.308
 6244SOL    HW129411   2.478   2.436   1.340
 6244SOL    HW229412   2.500   2.341   1.209
 6245SOL     OW29413   1.704   9.760   0.185
 6245SOL    HW129414   1.782   9.810   0.149
 6245SOL    HW229415   1.728   9.663   0.195
 6246SOL     OW29416   9.347   7.454   3.718
 6246SOL    HW129417   9.419   7.520   3.696
 6246SOL    HW229418   9.386   7.377   3.768
 6247SOL     OW29419   0.998   5.974   0.213
 6247SOL    HW129420   1.093   5.948   0.231
 6247SOL    HW229421   0.966   6.036   0.284
 6248SOL     OW29422   9.922   3.368   2.367
 6248SOL    HW129423   9.941   3.443   2.304
 6248SOL    HW229424   9.842   3.391   2.423
 6249SOL     OW29425   1.431   3.305   3.776
 6249SOL    HW129426   1.342   3.292   3.819
 6249SOL    HW229427   1.426   3.379   3.709
 6250SOL     OW29428   2.034   6.855   3.307
 6250SOL    HW129429   2.041   6.756   3.315
 6250SOL    HW229430   1.945   6.885   3.341
 6251SOL     OW29431   2.358   9.151   0.204
 6251SOL    HW129432   2.364   9.163   0.303
 6251SOL    HW229433   2.336   9.239   0.161
 6252SOL     OW29434   9.569   4.955   1.085
 6252SOL    HW129435   9.595   5.050   1.072
 6252SOL    HW229436   9.503   4.928   1.015
 6253SOL     OW29437   0.052   2.030   1.403
 6253SOL    HW129438   0.124   1.986   1.351
 6253SOL    HW229439   0.004   2.096   1.345
 6254SOL     OW29440   6.051   9.957   2.106
 6254SOL    HW129441   6.138   0.001   2.083
 6254SOL    HW229442   5.977   0.004   2.058
 6255SOL     OW29443   8.909   8.332   1.570
 6255SOL    HW129444   8.833   8.316   1.506
 6255SOL    HW229445   8.990   8.283   1.538
 6256SOL     OW29446   7.722   6.232   4.194
 6256SOL    HW129447   7.651   6.301   4.177
 6256SOL    HW229448   7.683   6.140   4.182
 6257SOL     OW29449   0.584   8.057   1.470
 6257SOL    HW129450   0.655   8.074   1.402
 6257SOL    HW229451   0.596   8.119   1.548
 6258SOL     OW29452   8.016   5.924   2.948
 6258SOL    HW129453   7.958   5.969   3.016
 6258SOL    HW229454   7.961   5.860   2.895
 6259SOL     OW29455   8.422   0.154   2.494
 6259SOL    HW129456   8.475   0.107   2.423
 6259SOL    HW229457   8.325   0.134   2.481
 6260SOL     OW29458   9.303   2.722   2.480
 6260SOL    HW129459   9.283   2.645   2.419
 6260SOL    HW229460   9.224   2.737   2.540
 6261SOL     OW29461   1.683   7.743   4.282
 6261SOL    HW129462   1.710   7.691   4.200
 6261SOL    HW229463   1.682   7.681   4.361
 6262SOL     OW29464   8.861   5.661   3.238
 6262SOL    HW129465   8.821   5.602   3.168
 6262SOL    HW229466   8.957   5.679   3.216
 6263SOL     OW29467   2.895   1.420   2.215
 6263SOL    HW129468   2.858   1.329   2.195
 6263SOL    HW229469   2.963   1.413   2.288
 6264SOL     OW29470   8.333   2.172   0.457
 6264SOL    HW129471   8.254   2.124   0.494
 6264SOL    HW229472   8.378   2.116   0.387
 6265SOL     OW29473   2.316   8.838   4.226
 6265SOL    HW129474   2.229   8.796   4.199
 6265SOL    HW229475   2.372   8.770   4.274
 6266SOL     OW29476   0.466   8.500   2.527
 6266SOL    HW129477   0.422   8.582   2.562
 6266SOL    HW229478   0.564   8.503   2.546
 6267SOL     OW29479   8.982   5.997   4.022
 6267SOL    HW129480   8.951   5.918   3.970
 6267SOL    HW229481   8.949   6.081   3.978
 6268SOL     OW29482   4.009   2.382   1.283
 6268SOL    HW129483   4.028   2.404   1.188
 6268SOL    HW229484   4.072   2.432   1.342
 6269SOL     OW29485   1.109   6.908   3.181
 6269SOL    HW129486   1.039   6.971   3.213
 6269SOL    HW229487   1.078   6.862   3.098
 6270SOL     OW29488   6.797   9.623   3.495
 6270SOL    HW129489   6.891   9.609   3.526
 6270SOL    HW229490   6.750   9.534   3.492
 6271SOL     OW29491   1.680   4.822   1.452
 6271SOL    HW129492   1.590   4.820   1.407
 6271SOL    HW229493   1.667   4.837   1.550
 6272SOL     OW29494   9.660   4.115   3.675
 6272SOL    HW129495   9.621   4.115   3.767
 6272SOL    HW229496   9.614   4.046   3.619
 6273SOL     OW29497   2.576   1.021   0.585
 6273SOL    HW129498   2.581   1.115   0.551
 6273SOL    HW229499   2.535   1.021   0.676
 6274SOL     OW29500   2.027   7.974   1.618
 6274SOL    HW129501   1.938   7.982   1.663
 6274SOL    HW229502   2.044   8.056   1.563
 6275SOL     OW29503   0.687   1.416   3.354
 6275SOL    HW129504   0.595   1.440   3.324
 6275SOL    HW229505   0.749   1.416   3.276
 6276SOL     OW29506   9.072   7.011   0.966
 6276SOL    HW129507   9.068   7.048   0.873
 6276SOL    HW229508   9.100   6.915   0.962
 6277SOL     OW29509   4.290   8.605   1.253
 6277SOL    HW129510   4.352   8.527   1.244
 6277SOL    HW229511   4.258   8.632   1.162
 6278SOL     OW29512   6.901   9.314   2.555
 6278SOL    HW129513   6.965   9.280   2.623
 6278SOL    HW229514   6.878   9.241   2.491
 6279SOL     OW29515   2.666   2.228   1.871
 6279SOL    HW129516   2.718   2.229   1.956
 6279SOL    HW229517   2.609   2.146   1.868
 6280SOL     OW29518   3.993   1.131   3.767
 6280SOL    HW129519   3.937   1.214   3.771
 6280SOL    HW229520   4.064   1.136   3.837
 6281SOL     OW29521   2.423   5.765   0.265
 6281SOL    HW129522   2.478   5.697   0.314
 6281SOL    HW229523   2.472   5.792   0.182
 6282SOL     OW29524   0.325   9.947   3.441
 6282SOL    HW129525   0.293   0.041   3.455
 6282SOL    HW229526   0.247   9.885   3.439
 6283SOL     OW29527   2.665   8.884   4.024
 6283SOL    HW129528   2.758   8.849   4.010
 6283SOL    HW229529   2.670   8.980   4.054
 6284SOL     OW29530   3.636   9.889   3.940
 6284SOL    HW129531   3.559   9.899   3.877
 6284SOL    HW229532   3.702   9.962   3.924
 6285SOL     OW29533   8.072   3.076   4.160
 6285SOL    HW129534   8.116   3.076   4.070
 6285SOL    HW229535   8.115   3.007   4.218
 6286SOL     OW29536   6.168   0.715   3.960
 6286SOL    HW129537   6.105   0.779   3.915
 6286SOL    HW229538   6.153   0.623   3.925
 6287SOL     OW29539   7.838   9.455   2.048
 6287SOL    HW129540   7.851   9.381   1.982
 6287SOL    HW229541   7.898   9.531   2.026
 6288SOL     OW29542   9.790   9.103   1.066
 6288SOL    HW129543   9.858   9.172   1.087
 6288SOL    HW229544   9.746   9.125   0.979
 6289SOL     OW29545   3.311   6.041   0.932
 6289SOL    HW129546   3.320   5.941   0.925
 6289SOL    HW229547   3.221   6.064   0.970
 6290SOL     OW29548   2.679   5.876   2.803
 6290SOL    HW129549   2.704   5.889   2.707
 6290SOL    HW229550   2.696   5.781   2.828
 6291SOL     OW29551   6.323   8.267   3.167
 6291SOL    HW129552   6.307   8.168   3.173
 6291SOL    HW229553   6.318   8.295   3.072
 6292SOL     OW29554   9.171   6.811   4.278
 6292SOL    HW129555   9.188   6.775   4.186
 6292SOL    HW229556   9.195   6.741   4.345
 6293SOL     OW29557   9.506   6.845   0.979
 6293SOL    HW129558   9.562   6.780   0.926
 6293SOL    HW229559   9.563   6.889   1.048
 6294SOL     OW29560   4.017   1.041   3.510
 6294SOL    HW129561   4.003   1.057   3.607
 6294SOL    HW229562   4.025   1.128   3.462
 6295SOL     OW29563   7.413   0.605   0.567
 6295SOL    HW129564   7.389   0.698   0.540
 6295SOL    HW229565   7.494   0.608   0.627
 6296SOL     OW29566   2.776   4.844   3.326
 6296SOL    HW129567   2.787   4.745   3.314
 6296SOL    HW229568   2.719   4.880   3.252
 6297SOL     OW29569   0.062   3.357   2.604
 6297SOL    HW129570   0.159   3.337   2.589
 6297SOL    HW229571   0.014   3.355   2.516
 6298SOL     OW29572   4.244   3.059   3.098
 6298SOL    HW129573   4.175   3.067   3.170
 6298SOL    HW229574   4.332   3.089   3.133
 6299SOL     OW29575   6.247   8.236   3.541
 6299SOL    HW129576   6.257   8.335   3.541
 6299SOL    HW229577   6.338   8.193   3.542
 6300SOL     OW29578   1.680   2.081   3.441
 6300SOL    HW129579   1.669   2.178   3.420
 6300SOL    HW229580   1.718   2.034   3.362
 6301SOL     OW29581   2.541   6.026   4.205
 6301SOL    HW129582   2.588   5.972   4.274
 6301SOL    HW229583   2.509   6.112   4.245
 6302SOL     OW29584   1.414   1.834   4.201
 6302SOL    HW129585   1.343   1.846   4.271
 6302SOL    HW229586   1.429   1.920   4.153
 6303SOL     OW29587   5.794   8.109   3.408
 6303SOL    HW129588   5.881   8.154   3.387
 6303SOL    HW229589   5.730   8.177   3.445
 6304SOL     OW29590   3.703   9.125   4.270
 6304SOL    HW129591   3.789   9.175   4.277
 6304SOL    HW229592   3.654   9.155   4.188
 6305SOL     OW29593   7.618   8.334   3.158
 6305SOL    HW129594   7.590   8.244   3.191
 6305SOL    HW229595   7.630   8.330   3.059
 6306SOL     OW29596   4.972   8.308   3.068
 6306SOL    HW129597   5.005   8.215   3.051
 6306SOL    HW229598   4.991   8.365   2.989
 6307SOL     OW29599   7.415   1.956   3.499
 6307SOL    HW129600   7.491   1.900   3.466
 6307SOL    HW229601   7.346   1.964   3.427
 6308SOL     OW29602   4.329   9.346   1.120
 6308SOL    HW129603   4.389   9.415   1.080
 6308SOL    HW229604   4.378   9.296   1.191
 6309SOL     OW29605   8.050   0.143   2.907
 6309SOL    HW129606   8.026   0.164   2.812
 6309SOL    HW229607   8.017   0.052   2.931
 6310SOL     OW29608   8.897   1.727   0.519
 6310SOL    HW129609   8.956   1.767   0.589
 6310SOL    HW229610   8.812   1.696   0.562
 6311SOL     OW29611   4.920   1.450   0.647
 6311SOL    HW129612   5.004   1.413   0.609
 6311SOL    HW229613   4.941   1.506   0.728
 6312SOL     OW29614   3.933   9.875   2.247
 6312SOL    HW129615   3.955   9.857   2.343
 6312SOL    HW229616   3.973   9.962   2.219
 6313SOL     OW29617   1.601   6.999   3.251
 6313SOL    HW129618   1.579   7.068   3.183
 6313SOL    HW229619   1.520   6.944   3.271
 6314SOL     OW29620   2.167   7.019   3.481
 6314SOL    HW129621   2.118   6.954   3.423
 6314SOL    HW229622   2.254   6.978   3.511
 6315SOL     OW29623   1.010   1.586   1.234
 6315SOL    HW129624   0.998   1.532   1.151
 6315SOL    HW229625   0.970   1.676   1.221
 6316SOL     OW29626   0.968   2.702   0.508
 6316SOL    HW129627   1.028   2.763   0.560
 6316SOL    HW229628   0.934   2.750   0.427
 6317SOL     OW29629   8.748   3.442   1.713
 6317SOL    HW129630   8.797   3.530   1.716
 6317SOL    HW229631   8.732   3.416   1.618
 6318SOL     OW29632   1.810   8.478   3.722
 6318SOL    HW129633   1.767   8.449   3.636
 6318SOL    HW229634   1.835   8.574   3.716
 6319SOL     OW29635   9.499   6.459   1.932
 6319SOL    HW129636   9.594   6.454   1.964
 6319SOL    HW229637   9.453   6.373   1.952
 6320SOL     OW29638   9.083   6.545   2.428
 6320SOL    HW129639   9.092   6.489   2.510
 6320SOL    HW229640   9.035   6.493   2.358
 6321SOL     OW29641   0.419   0.963   2.475
 6321SOL    HW129642   0.518   0.972   2.485
 6321SOL    HW229643   0.388   0.881   2.522
 6322SOL     OW29644   6.394   8.823   3.730
 6322SOL    HW129645   6.338   8.799   3.651
 6322SOL    HW229646   6.424   8.918   3.722
 6323SOL     OW29647   8.642   2.871   4.104
 6323SOL    HW129648   8.564   2.932   4.093
 6323SOL    HW229649   8.614   2.792   4.159
 6324SOL     OW29650   8.539   8.335   4.062
 6324SOL    HW129651   8.512   8.372   4.151
 6324SOL    HW229652   8.514   8.239   4.056
 6325SOL     OW29653   7.990   1.588   4.255
 6325SOL    HW129654   8.007   1.642   4.173
 6325SOL    HW229655   7.893   1.595   4.279
 6326SOL     OW29656   2.274   7.117   0.181
 6326SOL    HW129657   2.180   7.128   0.150
 6326SOL    HW229658   2.275   7.098   0.279
 6327SOL     OW29659   0.628   2.295   2.378
 6327SOL    HW129660   0.611   2.265   2.284
 6327SOL    HW229661   0.720   2.332   2.386
 6328SOL     OW29662   3.330   7.945   3.068
 6328SOL    HW129663   3.271   7.907   2.997
 6328SOL    HW229664   3.304   7.905   3.157
 6329SOL     OW29665   5.271   9.839   1.081
 6329SOL    HW129666   5.359   9.871   1.116
 6329SOL    HW229667   5.209   9.823   1.158
 6330SOL     OW29668   7.588   9.956   1.924
 6330SOL    HW129669   7.493   9.924   1.920
 6330SOL    HW229670   7.590   0.055   1.911
 6331SOL     OW29671   4.777   0.874   4.248
 6331SOL    HW129672   4.855   0.881   4.186
 6331SOL    HW229673   4.790   0.797   4.310
 6332SOL     OW29674   1.487   8.285   3.911
 6332SOL    HW129675   1.524   8.345   3.982
 6332SOL    HW229676   1.502   8.190   3.937
 6333SOL     OW29677   7.046   9.065   1.070
 6333SOL    HW129678   6.961   9.093   1.115
 6333SOL    HW229679   7.065   8.969   1.092
 6334SOL     OW29680   1.242   7.726   1.403
 6334SOL    HW129681   1.313   7.659   1.381
 6334SOL    HW229682   1.176   7.685   1.466
 6335SOL     OW29683   8.768   3.376   3.472
 6335SOL    HW129684   8.767   3.348   3.568
 6335SOL    HW229685   8.859   3.361   3.434
 6336SOL     OW29686   7.653   2.023   0.329
 6336SOL    HW129687   7.658   1.927   0.356
 6336SOL    HW229688   7.562   2.059   0.348
 6337SOL     OW29689   5.612   0.594   2.577
 6337SOL    HW129690   5.709   0.574   2.591
 6337SOL    HW229691   5.557   0.527   2.626
 6338SOL     OW29692   4.058   8.288   3.503
 6338SOL    HW129693   4.069   8.224   3.427
 6338SOL    HW229694   3.987   8.255   3.565
 6339SOL     OW29695   4.130   0.608   1.567
 6339SOL    HW129696   4.140   0.512   1.542
 6339SOL    HW229697   4.047   0.646   1.525
 6340SOL     OW29698   3.963   2.361   3.936
 6340SOL    HW129699   3.872   2.392   3.907
 6340SOL    HW229700   4.007   2.313   3.860
 6341SOL     OW29701   9.171   1.729   1.696
 6341SOL    HW129702   9.177   1.800   1.766
 6341SOL    HW229703   9.183   1.770   1.605
 6342SOL     OW29704   9.991   6.854   2.410
 6342SOL    HW129705   0.057   6.919   2.447
 6342SOL    HW229706   0.033   6.802   2.336
 6343SOL     OW29707   1.743   7.335   0.349
 6343SOL    HW129708   1.646   7.352   0.366
 6343SOL    HW229709   1.772   7.385   0.267
 6344SOL     OW29710   1.889   8.507   0.124
 6344SOL    HW129711   1.935   8.496   0.037
 6344SOL    HW229712   1.926   8.442   0.191
 6345SOL     OW29713   8.912   1.649   1.394
 6345SOL    HW129714   8.870   1.675   1.481
 6345SOL    HW229715   8.918   1.729   1.334
 6346SOL     OW29716   0.348   2.782   2.860
 6346SOL    HW129717   0.251   2.782   2.886
 6346SOL    HW229718   0.399   2.841   2.922
 6347SOL     OW29719   5.980   1.637   3.548
 6347SOL    HW129720   6.054   1.682   3.497
 6347SOL    HW229721   5.901   1.625   3.489
 6348SOL     OW29722   8.351   8.884   1.461
 6348SOL    HW129723   8.341   8.959   1.527
 6348SOL    HW229724   8.404   8.810   1.502
 6349SOL     OW29725   0.177   4.951   1.813
 6349SOL    HW129726   0.160   5.044   1.846
 6349SOL    HW229727   0.226   4.955   1.726
 6350SOL     OW29728   1.544   0.481   4.029
 6350SOL    HW129729   1.518   0.537   3.950
 6350SOL    HW229730   1.528   0.533   4.113
 6351SOL     OW29731   8.184   5.707   4.171
 6351SOL    HW129732   8.258   5.694   4.105
 6351SOL    HW229733   8.203   5.654   4.253
 6352SOL     OW29734   1.700   2.853   2.659
 6352SOL    HW129735   1.755   2.893   2.586
 6352SOL    HW229736   1.755   2.846   2.742
 6353SOL     OW29737   9.632   4.055   2.286
 6353SOL    HW129738   9.621   4.031   2.383
 6353SOL    HW229739   9.712   4.008   2.249
 6354SOL     OW29740   8.017   8.995   3.255
 6354SOL    HW129741   7.929   9.017   3.295
 6354SOL    HW229742   8.055   8.915   3.301
 6355SOL     OW29743   8.178   3.934   0.390
 6355SOL    HW129744   8.231   3.984   0.322
 6355SOL    HW229745   8.089   3.909   0.351
 6356SOL     OW29746   8.185   5.441   1.094
 6356SOL    HW129747   8.160   5.355   1.138
 6356SOL    HW229748   8.106   5.478   1.046
 6357SOL     OW29749   2.214   5.911   1.236
 6357SOL    HW129750   2.200   5.853   1.156
 6357SOL    HW229751   2.231   5.854   1.316
 6358SOL     OW29752   0.339   5.601   2.417
 6358SOL    HW129753   0.303   5.568   2.330
 6358SOL    HW229754   0.406   5.673   2.400
 6359SOL     OW29755   3.928   5.980   1.163
 6359SOL    HW129756   3.965   6.029   1.084
 6359SOL    HW229757   3.841   6.022   1.190
 6360SOL     OW29758   0.618   5.349   3.517
 6360SOL    HW129759   0.530   5.326   3.478
 6360SOL    HW229760   0.689   5.342   3.447
 6361SOL     OW29761   1.490   7.441   3.081
 6361SOL    HW129762   1.401   7.485   3.074
 6361SOL    HW229763   1.556   7.489   3.023
 6362SOL     OW29764   2.402   1.333   2.559
 6362SOL    HW129765   2.321   1.373   2.515
 6362SOL    HW229766   2.408   1.236   2.535
 6363SOL     OW29767   2.431   0.511   3.450
 6363SOL    HW129768   2.468   0.479   3.537
 6363SOL    HW229769   2.469   0.457   3.375
 6364SOL     OW29770   1.267   4.306   2.511
 6364SOL    HW129771   1.236   4.372   2.579
 6364SOL    HW229772   1.365   4.318   2.494
 6365SOL     OW29773   3.655   8.051   0.200
 6365SOL    HW129774   3.720   7.996   0.252
 6365SOL    HW229775   3.563   8.013   0.209
 6366SOL     OW29776   2.220   9.994   1.844
 6366SOL    HW129777   2.141   9.954   1.797
 6366SOL    HW229778   2.204   9.994   1.942
 6367SOL     OW29779   3.719   6.912   3.695
 6367SOL    HW129780   3.731   7.002   3.738
 6367SOL    HW229781   3.798   6.893   3.636
 6368SOL     OW29782   0.230   1.686   1.897
 6368SOL    HW129783   0.143   1.700   1.943
 6368SOL    HW229784   0.301   1.740   1.943
 6369SOL     OW29785   4.865   7.385   4.033
 6369SOL    HW129786   4.921   7.360   3.955
 6369SOL    HW229787   4.909   7.457   4.086
 6370SOL     OW29788   9.866   8.784   1.460
 6370SOL    HW129789   9.812   8.707   1.427
 6370SOL    HW229790   9.852   8.797   1.558
 6371SOL     OW29791   3.934   4.260   0.498
 6371SOL    HW129792   3.838   4.269   0.527
 6371SOL    HW229793   3.975   4.350   0.490
 6372SOL     OW29794   0.319   2.089   0.458
 6372SOL    HW129795   0.237   2.131   0.420
 6372SOL    HW229796   0.379   2.059   0.384
 6373SOL     OW29797   0.264   4.532   3.182
 6373SOL    HW129798   0.264   4.632   3.181
 6373SOL    HW229799   0.358   4.499   3.194
 6374SOL     OW29800   4.903   2.397   0.642
 6374SOL    HW129801   4.879   2.315   0.591
 6374SOL    HW229802   4.975   2.447   0.595
 6375SOL     OW29803   4.436   5.796   2.084
 6375SOL    HW129804   4.445   5.868   2.153
 6375SOL    HW229805   4.349   5.748   2.096
 6376SOL     OW29806   3.636   0.669   1.753
 6376SOL    HW129807   3.721   0.684   1.802
 6376SOL    HW229808   3.563   0.645   1.817
 6377SOL     OW29809   5.066   1.711   2.604
 6377SOL    HW129810   5.156   1.674   2.580
 6377SOL    HW229811   4.995   1.644   2.579
 6378SOL     OW29812   8.413   5.112   4.384
 6378SOL    HW129813   8.442   5.158   4.468
 6378SOL    HW229814   8.486   5.052   4.352
 6379SOL     OW29815   2.550   7.915   2.157
 6379SOL    HW129816   2.608   7.957   2.227
 6379SOL    HW229817   2.455   7.922   2.185
 6380SOL     OW29818   0.728   8.560   2.622
 6380SOL    HW129819   0.721   8.536   2.719
 6380SOL    HW229820   0.749   8.658   2.614
 6381SOL     OW29821   4.365   1.314   0.829
 6381SOL    HW129822   4.273   1.281   0.808
 6381SOL    HW229823   4.427   1.291   0.754
 6382SOL     OW29824   6.453   0.307   0.833
 6382SOL    HW129825   6.443   0.363   0.915
 6382SOL    HW229826   6.547   0.314   0.798
 6383SOL     OW29827   3.835   0.016   3.643
 6383SOL    HW129828   3.744   9.987   3.612
 6383SOL    HW229829   3.828   0.054   3.735
 6384SOL     OW29830   5.126   1.330   0.503
 6384SOL    HW129831   5.088   1.238   0.500
 6384SOL    HW229832   5.107   1.377   0.416
 6385SOL     OW29833   4.808   0.022   1.322
 6385SOL    HW129834   4.819   9.983   1.231
 6385SOL    HW229835   4.885   9.996   1.380
 6386SOL     OW29836   3.067   0.001   1.130
 6386SOL    HW129837   3.080   9.981   1.033
 6386SOL    HW229838   2.978   9.966   1.159
 6387SOL     OW29839   4.502   7.454   1.830
 6387SOL    HW129840   4.427   7.500   1.782
 6387SOL    HW229841   4.575   7.520   1.848
 6388SOL     OW29842   0.489   6.021   0.345
 6388SOL    HW129843   0.438   5.967   0.278
 6388SOL    HW229844   0.498   6.115   0.313
 6389SOL     OW29845   3.846   9.304   1.203
 6389SOL    HW129846   3.905   9.301   1.284
 6389SOL    HW229847   3.849   9.215   1.157
 6390SOL     OW29848   4.169   1.031   2.697
 6390SOL    HW129849   4.221   1.050   2.780
 6390SOL    HW229850   4.138   1.117   2.657
 6391SOL     OW29851   6.576   9.197   4.178
 6391SOL    HW129852   6.626   9.205   4.264
 6391SOL    HW229853   6.615   9.260   4.111
 6392SOL     OW29854   2.957   8.590   2.574
 6392SOL    HW129855   2.905   8.601   2.489
 6392SOL    HW229856   3.048   8.556   2.553
 6393SOL     OW29857   8.332   5.459   1.520
 6393SOL    HW129858   8.287   5.543   1.490
 6393SOL    HW229859   8.346   5.461   1.619
 6394SOL     OW29860   8.880   2.388   0.935
 6394SOL    HW129861   8.953   2.321   0.950
 6394SOL    HW229862   8.834   2.368   0.848
 6395SOL     OW29863   9.477   7.231   3.839
 6395SOL    HW129864   9.560   7.288   3.842
 6395SOL    HW229865   9.487   7.162   3.767
 6396SOL     OW29866   4.548   8.019   3.628
 6396SOL    HW129867   4.477   7.950   3.646
 6396SOL    HW229868   4.540   8.051   3.533
 6397SOL     OW29869   4.162   0.439   2.955
 6397SOL    HW129870   4.127   0.503   3.023
 6397SOL    HW229871   4.236   0.386   2.994
 6398SOL     OW29872   1.499   0.248   2.427
 6398SOL    HW129873   1.456   0.320   2.482
 6398SOL    HW229874   1.589   0.227   2.465
 6399SOL     OW29875   2.822   6.990   1.977
 6399SOL    HW129876   2.850   6.902   1.938
 6399SOL    HW229877   2.772   7.042   1.909
 6400SOL     OW29878   5.109   4.346   0.036
 6400SOL    HW129879   5.032   4.401   0.004
 6400SOL    HW229880   5.183   4.350   5.603
 6401SOL     OW29881   1.015   6.940   1.886
 6401SOL    HW129882   0.925   6.906   1.859
 6401SOL    HW229883   1.079   6.928   1.811
 6402SOL     OW29884   6.746   0.079   0.641
 6402SOL    HW129885   6.746   0.028   0.727
 6402SOL    HW229886   6.835   0.070   0.597
 6403SOL     OW29887   3.331   9.549   1.813
 6403SOL    HW129888   3.338   9.462   1.861
 6403SOL    HW229889   3.388   9.546   1.731
 6404SOL     OW29890   8.383   6.510   0.281
 6404SOL    HW129891   8.420   6.450   0.210
 6404SOL    HW229892   8.367   6.457   0.364
 6405SOL     OW29893   1.386   3.215   4.121
 6405SOL    HW129894   1.289   3.231   4.138
 6405SOL    HW229895   1.398   3.126   4.076
 6406SOL     OW29896   4.047   5.998   2.012
 6406SOL    HW129897   4.027   5.911   1.968
 6406SOL    HW229898   4.001   6.003   2.101
 6407SOL     OW29899   9.639   2.716   1.944
 6407SOL    HW129900   9.720   2.665   1.918
 6407SOL    HW229901   9.634   2.724   2.043
 6408SOL     OW29902   8.332   9.242   2.986
 6408SOL    HW129903   8.389   9.231   2.904
 6408SOL    HW229904   8.288   9.154   3.007
 6409SOL     OW29905   4.763   2.485   2.965
 6409SOL    HW129906   4.798   2.492   2.871
 6409SOL    HW229907   4.839   2.465   3.027
 6410SOL     OW29908   0.740   4.852   1.703
 6410SOL    HW129909   0.697   4.923   1.647
 6410SOL    HW229910   0.688   4.767   1.696
 6411SOL     OW29911   7.226   1.091   2.524
 6411SOL    HW129912   7.176   1.005   2.512
 6411SOL    HW229913   7.324   1.073   2.515
 6412SOL     OW29914   7.855   5.571   2.989
 6412SOL    HW129915   7.827   5.650   2.935
 6412SOL    HW229916   7.936   5.594   3.043
 6413SOL     OW29917   1.441   1.663   2.130
 6413SOL    HW129918   1.489   1.742   2.168
 6413SOL    HW229919   1.406   1.685   2.039
 6414SOL     OW29920   9.075   8.782   3.960
 6414SOL    HW129921   9.054   8.690   3.992
 6414SOL    HW229922   9.119   8.834   4.033
 6415SOL     OW29923   2.468   6.931   4.107
 6415SOL    HW129924   2.397   6.903   4.043
 6415SOL    HW229925   2.479   6.862   4.179
 6416SOL     OW29926   0.599   1.172   0.843
 6416SOL    HW129927   0.568   1.116   0.766
 6416SOL    HW229928   0.619   1.114   0.921
 6417SOL     OW29929   4.517   3.701   2.698
 6417SOL    HW129930   4.465   3.615   2.689
 6417SOL    HW229931   4.547   3.731   2.608
 6418SOL     OW29932   3.330   3.205   2.937
 6418SOL    HW129933   3.412   3.166   2.978
 6418SOL    HW229934   3.272   3.244   3.009
 6419SOL     OW29935   5.198   7.334   2.444
 6419SOL    HW129936   5.103   7.361   2.463
 6419SOL    HW229937   5.209   7.320   2.346
 6420SOL     OW29938   9.404   4.389   4.172
 6420SOL    HW129939   9.468   4.388   4.095
 6420SOL    HW229940   9.310   4.388   4.137
 6421SOL     OW29941   9.568   6.775   0.416
 6421SOL    HW129942   9.649   6.720   0.395
 6421SOL    HW229943   9.489   6.740   0.365
 6422SOL     OW29944   1.558   3.711   3.435
 6422SOL    HW129945   1.624   3.724   3.360
 6422SOL    HW229946   1.481   3.774   3.423
 6423SOL     OW29947   1.480   9.649   3.408
 6423SOL    HW129948   1.495   9.740   3.369
 6423SOL    HW229949   1.383   9.638   3.431
 6424SOL     OW29950   0.716   5.949   0.471
 6424SOL    HW129951   0.759   5.875   0.419
 6424SOL    HW229952   0.629   5.973   0.430
 6425SOL     OW29953   0.972   1.078   0.980
 6425SOL    HW129954   1.031   1.024   1.039
 6425SOL    HW229955   0.921   1.145   1.034
 6426SOL     OW29956   0.824   4.372   0.110
 6426SOL    HW129957   0.849   4.336   0.200
 6426SOL    HW229958   0.883   4.451   0.089
 6427SOL     OW29959   1.724   1.059   3.293
 6427SOL    HW129960   1.731   1.157   3.312
 6427SOL    HW229961   1.771   1.007   3.365
 6428SOL     OW29962   4.671   9.933   3.862
 6428SOL    HW129963   4.614   9.897   3.788
 6428SOL    HW229964   4.668   9.871   3.940
 6429SOL     OW29965   8.923   3.184   1.186
 6429SOL    HW129966   8.895   3.280   1.182
 6429SOL    HW229967   8.957   3.163   1.278
 6430SOL     OW29968   3.312   3.373   0.342
 6430SOL    HW129969   3.251   3.443   0.303
 6430SOL    HW229970   3.337   3.399   0.435
 6431SOL     OW29971   2.168   8.732   3.315
 6431SOL    HW129972   2.231   8.756   3.241
 6431SOL    HW229973   2.082   8.781   3.302
 6432SOL     OW29974   0.740   5.954   2.457
 6432SOL    HW129975   0.771   6.008   2.379
 6432SOL    HW229976   0.818   5.909   2.499
 6433SOL     OW29977   1.221   9.603   3.486
 6433SOL    HW129978   1.202   9.515   3.443
 6433SOL    HW229979   1.209   9.596   3.585
 6434SOL     OW29980   0.395   9.532   0.779
 6434SOL    HW129981   0.424   9.628   0.780
 6434SOL    HW229982   0.373   9.504   0.686
 6435SOL     OW29983   3.828   7.420   4.319
 6435SOL    HW129984   3.876   7.417   4.231
 6435SOL    HW229985   3.765   7.343   4.325
 6436SOL     OW29986   8.431   2.227   4.291
 6436SOL    HW129987   8.527   2.199   4.286
 6436SOL    HW229988   8.374   2.154   4.254
 6437SOL     OW29989   1.281   6.050   2.428
 6437SOL    HW129990   1.287   5.951   2.421
 6437SOL    HW229991   1.372   6.089   2.444
 6438SOL     OW29992   2.871   7.533   2.414
 6438SOL    HW129993   2.900   7.511   2.508
 6438SOL    HW229994   2.790   7.479   2.391
 6439SOL     OW29995   2.880   0.504   0.564
 6439SOL    HW129996   2.844   0.566   0.634
 6439SOL    HW229997   2.913   0.420   0.607
 6440SOL     OW29998   5.731   9.126   1.724
 6440SOL    HW129999   5.735   9.107   1.822
 6440SOL    HW230000   5.720   9.224   1.710
 6441SOL     OW30001   4.532   6.987   1.605
 6441SOL    HW130002   4.476   6.960   1.527
 6441SOL    HW230003   4.529   7.087   1.615
 6442SOL     OW30004   9.556   4.608   2.907
 6442SOL    HW130005   9.642   4.595   2.858
 6442SOL    HW230006   9.534   4.525   2.959
 6443SOL     OW30007   9.229   8.363   2.692
 6443SOL    HW130008   9.138   8.344   2.655
 6443SOL    HW230009   9.272   8.435   2.638
 6444SOL     OW30010   8.266   9.362   1.041
 6444SOL    HW130011   8.359   9.378   1.007
 6444SOL    HW230012   8.215   9.306   0.976
 6445SOL     OW30013   8.545   9.777   2.187
 6445SOL    HW130014   8.588   9.782   2.097
 6445SOL    HW230015   8.585   9.702   2.239
 6446SOL     OW30016   5.531   9.020   3.013
 6446SOL    HW130017   5.603   8.955   3.038
 6446SOL    HW230018   5.491   8.994   2.925
 6447SOL     OW30019   2.093   4.316   4.381
 6447SOL    HW130020   2.016   4.254   4.397
 6447SOL    HW230021   2.059   4.409   4.372
 6448SOL     OW30022   1.612   5.579   0.654
 6448SOL    HW130023   1.705   5.548   0.636
 6448SOL    HW230024   1.577   5.629   0.574
 6449SOL     OW30025   2.558   0.694   2.814
 6449SOL    HW130026   2.552   0.626   2.887
 6449SOL    HW230027   2.654   0.722   2.803
 6450SOL     OW30028   7.876   3.645   1.624
 6450SOL    HW130029   7.897   3.584   1.548
 6450SOL    HW230030   7.925   3.613   1.706
 6451SOL     OW30031   6.562   8.287   4.151
 6451SOL    HW130032   6.545   8.371   4.099
 6451SOL    HW230033   6.555   8.306   4.249
 6452SOL     OW30034   5.378   8.775   3.377
 6452SOL    HW130035   5.283   8.744   3.376
 6452SOL    HW230036   5.385   8.862   3.327
 6453SOL     OW30037   6.791   8.397   1.924
 6453SOL    HW130038   6.815   8.448   1.841
 6453SOL    HW230039   6.755   8.461   1.992
 6454SOL     OW30040   9.596   5.674   4.273
 6454SOL    HW130041   9.519   5.613   4.294
 6454SOL    HW230042   9.682   5.624   4.285
 6455SOL     OW30043   7.000   0.326   1.725
 6455SOL    HW130044   6.970   0.418   1.703
 6455SOL    HW230045   6.948   0.260   1.670
 6456SOL     OW30046   3.518   7.115   4.268
 6456SOL    HW130047   3.445   7.182   4.277
 6456SOL    HW230048   3.485   7.025   4.295
 6457SOL     OW30049   9.968   7.788   2.803
 6457SOL    HW130050   9.968   7.841   2.718
 6457SOL    HW230051   9.896   7.821   2.863
 6458SOL     OW30052   5.757   7.529   3.804
 6458SOL    HW130053   5.827   7.573   3.749
 6458SOL    HW230054   5.746   7.434   3.775
 6459SOL     OW30055   2.947   0.417   3.180
 6459SOL    HW130056   2.937   0.514   3.158
 6459SOL    HW230057   3.029   0.381   3.137
 6460SOL     OW30058   1.148   3.515   2.383
 6460SOL    HW130059   1.081   3.573   2.337
 6460SOL    HW230060   1.186   3.564   2.462
 6461SOL     OW30061   8.074   4.225   3.964
 6461SOL    HW130062   8.074   4.126   3.950
 6461SOL    HW230063   8.162   4.263   3.935
 6462SOL     OW30064   4.783   0.317   3.737
 6462SOL    HW130065   4.770   0.270   3.824
 6462SOL    HW230066   4.878   0.349   3.730
 6463SOL     OW30067   8.187   7.308   2.383
 6463SOL    HW130068   8.228   7.326   2.293
 6463SOL    HW230069   8.144   7.218   2.383
 6464SOL     OW30070   0.706   3.837   2.819
 6464SOL    HW130071   0.794   3.849   2.773
 6464SOL    HW230072   0.721   3.824   2.917
 6465SOL     OW30073   8.587   1.248   3.266
 6465SOL    HW130074   8.497   1.288   3.252
 6465SOL    HW230075   8.649   1.317   3.304
 6466SOL     OW30076   1.196   0.451   3.575
 6466SOL    HW130077   1.276   0.413   3.622
 6466SOL    HW230078   1.223   0.536   3.529
 6467SOL     OW30079   9.203   2.503   1.458
 6467SOL    HW130080   9.271   2.575   1.471
 6467SOL    HW230081   9.214   2.433   1.529
 6468SOL     OW30082   1.012   9.573   2.306
 6468SOL    HW130083   1.030   9.488   2.356
 6468SOL    HW230084   0.983   9.644   2.370
 6469SOL     OW30085   3.419   2.967   2.227
 6469SOL    HW130086   3.352   2.992   2.298
 6469SOL    HW230087   3.380   2.984   2.137
 6470SOL     OW30088   0.931   2.480   4.105
 6470SOL    HW130089   0.954   2.503   4.010
 6470SOL    HW230090   0.896   2.386   4.108
 6471SOL     OW30091   8.764   7.498   2.263
 6471SOL    HW130092   8.749   7.508   2.165
 6471SOL    HW230093   8.835   7.429   2.280
 6472SOL     OW30094   1.998   5.162   3.964
 6472SOL    HW130095   1.970   5.070   3.989
 6472SOL    HW230096   2.098   5.167   3.959
 6473SOL     OW30097   3.211   8.257   0.447
 6473SOL    HW130098   3.308   8.269   0.467
 6473SOL    HW230099   3.184   8.323   0.376
 6474SOL     OW30100   1.576   2.011   0.349
 6474SOL    HW130101   1.541   1.917   0.351
 6474SOL    HW230102   1.671   2.011   0.381
 6475SOL     OW30103   0.350   5.363   2.827
 6475SOL    HW130104   0.305   5.309   2.899
 6475SOL    HW230105   0.449   5.351   2.834
 6476SOL     OW30106   4.241   1.678   2.568
 6476SOL    HW130107   4.237   1.689   2.469
 6476SOL    HW230108   4.333   1.698   2.601
 6477SOL     OW30109   1.790   1.715   3.086
 6477SOL    HW130110   1.737   1.631   3.075
 6477SOL    HW230111   1.780   1.772   3.005
 6478SOL     OW30112   0.496   4.508   0.459
 6478SOL    HW130113   0.516   4.462   0.373
 6478SOL    HW230114   0.582   4.533   0.504
 6479SOL     OW30115   3.739   1.110   1.324
 6479SOL    HW130116   3.713   1.014   1.312
 6479SOL    HW230117   3.738   1.133   1.421
 6480SOL     OW30118   8.343   3.499   3.138
 6480SOL    HW130119   8.303   3.411   3.112
 6480SOL    HW230120   8.411   3.485   3.210
 6481SOL     OW30121   6.422   0.468   1.053
 6481SOL    HW130122   6.379   0.406   1.119
 6481SOL    HW230123   6.370   0.553   1.049
 6482SOL     OW30124   2.149   7.275   0.599
 6482SOL    HW130125   2.129   7.239   0.690
 6482SOL    HW230126   2.171   7.372   0.606
 6483SOL     OW30127   2.159   3.574   3.997
 6483SOL    HW130128   2.119   3.507   3.934
 6483SOL    HW230129   2.128   3.666   3.973
 6484SOL     OW30130   1.864   2.316   0.371
 6484SOL    HW130131   1.944   2.257   0.384
 6484SOL    HW230132   1.809   2.317   0.454
 6485SOL     OW30133   3.306   5.445   2.194
 6485SOL    HW130134   3.250   5.510   2.142
 6485SOL    HW230135   3.391   5.428   2.145
 6486SOL     OW30136   5.100   7.918   3.518
 6486SOL    HW130137   5.092   7.975   3.599
 6486SOL    HW230138   5.186   7.939   3.471
 6487SOL     OW30139   2.499   5.518   1.173
 6487SOL    HW130140   2.536   5.426   1.166
 6487SOL    HW230141   2.535   5.575   1.099
 6488SOL     OW30142   3.786   7.492   1.638
 6488SOL    HW130143   3.862   7.429   1.651
 6488SOL    HW230144   3.792   7.532   1.546
 6489SOL     OW30145   0.054   3.144   0.419
 6489SOL    HW130146   9.979   3.211   0.421
 6489SOL    HW230147   0.119   3.169   0.347
 6490SOL     OW30148   1.600   4.115   3.384
 6490SOL    HW130149   1.554   4.129   3.296
 6490SOL    HW230150   1.544   4.054   3.441
 6491SOL     OW30151   2.578   3.910   3.462
 6491SOL    HW130152   2.560   3.993   3.409
 6491SOL    HW230153   2.529   3.915   3.549
 6492SOL     OW30154   9.746   5.690   3.318
 6492SOL    HW130155   9.761   5.649   3.408
 6492SOL    HW230156   9.833   5.725   3.282
 6493SOL     OW30157   1.824   8.114   4.409
 6493SOL    HW130158   1.769   8.191   4.376
 6493SOL    HW230159   1.788   8.083   4.497
 6494SOL     OW30160   8.579   4.640   1.611
 6494SOL    HW130161   8.574   4.576   1.534
 6494SOL    HW230162   8.675   4.660   1.631
 6495SOL     OW30163   6.560   1.949   2.852
 6495SOL    HW130164   6.595   1.884   2.918
 6495SOL    HW230165   6.469   1.920   2.821
 6496SOL     OW30166   8.159   6.528   2.933
 6496SOL    HW130167   8.105   6.461   2.983
 6496SOL    HW230168   8.209   6.586   2.997
 6497SOL     OW30169   7.066   9.592   2.793
 6497SOL    HW130170   7.040   9.579   2.698
 6497SOL    HW230171   7.166   9.588   2.801
 6498SOL     OW30172   1.930   3.933   2.567
 6498SOL    HW130173   1.916   3.879   2.650
 6498SOL    HW230174   1.965   4.023   2.592
 6499SOL     OW30175   7.408   3.452   0.267
 6499SOL    HW130176   7.471   3.440   0.344
 6499SOL    HW230177   7.388   3.364   0.225
 6500SOL     OW30178   7.816   7.568   1.954
 6500SOL    HW130179   7.834   7.470   1.943
 6500SOL    HW230180   7.862   7.618   1.881
 6501SOL     OW30181   0.998   8.150   2.217
 6501SOL    HW130182   1.034   8.060   2.240
 6501SOL    HW230183   1.072   8.217   2.222
 6502SOL     OW30184   9.865   8.474   2.161
 6502SOL    HW130185   9.810   8.416   2.101
 6502SOL    HW230186   9.883   8.427   2.247
 6503SOL     OW30187   8.579   9.591   0.052
 6503SOL    HW130188   8.560   9.534   5.605
 6503SOL    HW230189   8.641   9.664   0.027
 6504SOL     OW30190   5.541   7.875   2.390
 6504SOL    HW130191   5.543   7.788   2.342
 6504SOL    HW230192   5.630   7.893   2.431
 6505SOL     OW30193   2.204   8.333   1.963
 6505SOL    HW130194   2.105   8.349   1.954
 6505SOL    HW230195   2.221   8.236   1.981
 6506SOL     OW30196   9.594   1.045   1.532
 6506SOL    HW130197   9.529   1.032   1.607
 6506SOL    HW230198   9.563   0.994   1.452
 6507SOL     OW30199   3.270   8.642   1.884
 6507SOL    HW130200   3.282   8.621   1.787
 6507SOL    HW230201   3.347   8.606   1.936
 6508SOL     OW30202   4.485   4.038   1.573
 6508SOL    HW130203   4.555   4.085   1.519
 6508SOL    HW230204   4.453   3.957   1.523
 6509SOL     OW30205   0.337   9.248   0.740
 6509SOL    HW130206   0.354   9.335   0.785
 6509SOL    HW230207   0.303   9.182   0.807
 6510SOL     OW30208   2.355   7.415   2.958
 6510SOL    HW130209   2.416   7.351   2.911
 6510SOL    HW230210   2.260   7.387   2.943
 6511SOL     OW30211   8.524   5.100   3.913
 6511SOL    HW130212   8.558   5.018   3.960
 6511SOL    HW230213   8.492   5.167   3.981
 6512SOL     OW30214   1.884   4.012   1.390
 6512SOL    HW130215   1.919   3.959   1.313
 6512SOL    HW230216   1.815   4.077   1.358
 6513SOL     OW30217   6.460   0.195   3.387
 6513SOL    HW130218   6.419   0.151   3.307
 6513SOL    HW230219   6.478   0.126   3.457
 6514SOL     OW30220   7.223   7.926   1.905
 6514SOL    HW130221   7.310   7.970   1.885
 6514SOL    HW230222   7.156   7.995   1.932
 6515SOL     OW30223   9.001   7.969   3.480
 6515SOL    HW130224   9.040   7.922   3.559
 6515SOL    HW230225   9.067   7.966   3.404
 6516SOL     OW30226   9.529   7.243   1.769
 6516SOL    HW130227   9.571   7.204   1.851
 6516SOL    HW230228   9.465   7.176   1.729
 6517SOL     OW30229   0.846   5.402   2.715
 6517SOL    HW130230   0.822   5.489   2.672
 6517SOL    HW230231   0.882   5.340   2.646
 6518SOL     OW30232   8.926   3.975   0.489
 6518SOL    HW130233   8.958   4.053   0.542
 6518SOL    HW230234   8.878   3.911   0.550
 6519SOL     OW30235   9.086   3.413   0.118
 6519SOL    HW130236   9.030   3.331   0.109
 6519SOL    HW230237   9.031   3.487   0.156
 6520SOL     OW30238   8.426   7.263   3.845
 6520SOL    HW130239   8.457   7.254   3.939
 6520SOL    HW230240   8.354   7.333   3.841
 6521SOL     OW30241   9.010   2.959   2.073
 6521SOL    HW130242   9.108   2.950   2.090
 6521SOL    HW230243   8.966   3.001   2.152
 6522SOL     OW30244   9.206   9.081   1.042
 6522SOL    HW130245   9.207   8.981   1.042
 6522SOL    HW230246   9.171   9.113   1.130
 6523SOL     OW30247   1.309   7.053   1.242
 6523SOL    HW130248   1.337   6.957   1.245
 6523SOL    HW230249   1.219   7.059   1.198
 6524SOL     OW30250   0.550   5.503   1.084
 6524SOL    HW130251   0.486   5.497   1.008
 6524SOL    HW230252   0.530   5.585   1.138
 6525SOL     OW30253   4.235   8.393   0.421
 6525SOL    HW130254   4.290   8.345   0.489
 6525SOL    HW230255   4.144   8.353   0.418
 6526SOL     OW30256   3.649   7.635   3.735
 6526SOL    HW130257   3.650   7.651   3.636
 6526SOL    HW230258   3.569   7.679   3.775
 6527SOL     OW30259   0.984   8.435   2.856
 6527SOL    HW130260   1.015   8.398   2.944
 6527SOL    HW230261   0.885   8.446   2.858
 6528SOL     OW30262   9.720   5.881   3.667
 6528SOL    HW130263   9.708   5.794   3.715
 6528SOL    HW230264   9.812   5.887   3.630
 6529SOL     OW30265   4.812   8.352   1.710
 6529SOL    HW130266   4.864   8.417   1.764
 6529SOL    HW230267   4.741   8.400   1.658
 6530SOL     OW30268   1.144   8.940   2.930
 6530SOL    HW130269   1.189   8.931   2.841
 6530SOL    HW230270   1.129   9.037   2.951
 6531SOL     OW30271   5.362   6.847   2.043
 6531SOL    HW130272   5.301   6.846   1.965
 6531SOL    HW230273   5.309   6.835   2.127
 6532SOL     OW30274   3.253   6.205   2.512
 6532SOL    HW130275   3.299   6.269   2.451
 6532SOL    HW230276   3.154   6.221   2.509
 6533SOL     OW30277   8.722   7.807   1.735
 6533SOL    HW130278   8.797   7.854   1.688
 6533SOL    HW230279   8.656   7.775   1.667
 6534SOL     OW30280   7.632   3.212   1.418
 6534SOL    HW130281   7.710   3.180   1.365
 6534SOL    HW230282   7.559   3.143   1.415
 6535SOL     OW30283   0.032   9.677   3.825
 6535SOL    HW130284   0.064   9.763   3.786
 6535SOL    HW230285   0.110   9.616   3.837
 6536SOL     OW30286   6.810   8.754   3.297
 6536SOL    HW130287   6.855   8.838   3.327
 6536SOL    HW230288   6.872   8.700   3.240
 6537SOL     OW30289   0.678   4.534   0.773
 6537SOL    HW130290   0.737   4.570   0.845
 6537SOL    HW230291   0.584   4.562   0.790
 6538SOL     OW30292   2.295   5.852   2.641
 6538SOL    HW130293   2.356   5.924   2.608
 6538SOL    HW230294   2.298   5.775   2.578
 6539SOL     OW30295   5.833   0.658   1.720
 6539SOL    HW130296   5.830   0.561   1.693
 6539SOL    HW230297   5.898   0.670   1.795
 6540SOL     OW30298   8.117   0.118   3.265
 6540SOL    HW130299   8.163   0.148   3.349
 6540SOL    HW230300   8.096   0.197   3.208
 6541SOL     OW30301   9.071   3.843   0.311
 6541SOL    HW130302   9.026   3.757   0.287
 6541SOL    HW230303   9.013   3.895   0.373
 6542SOL     OW30304   1.861   8.288   2.457
 6542SOL    HW130305   1.860   8.284   2.557
 6542SOL    HW230306   1.857   8.384   2.428
 6543SOL     OW30307   2.247   5.434   0.387
 6543SOL    HW130308   2.299   5.456   0.469
 6543SOL    HW230309   2.154   5.471   0.395
 6544SOL     OW30310   7.645   7.075   3.245
 6544SOL    HW130311   7.576   7.114   3.185
 6544SOL    HW230312   7.724   7.136   3.250
 6545SOL     OW30313   2.600   6.507   2.070
 6545SOL    HW130314   2.631   6.595   2.035
 6545SOL    HW230315   2.501   6.506   2.079
 6546SOL     OW30316   9.411   9.855   0.971
 6546SOL    HW130317   9.407   9.952   0.993
 6546SOL    HW230318   9.420   9.802   1.055
 6547SOL     OW30319   0.669   0.326   1.904
 6547SOL    HW130320   0.750   0.288   1.947
 6547SOL    HW230321   0.635   0.262   1.834
 6548SOL     OW30322   3.549   3.382   3.428
 6548SOL    HW130323   3.485   3.388   3.505
 6548SOL    HW230324   3.591   3.472   3.413
 6549SOL     OW30325   5.916   7.827   2.707
 6549SOL    HW130326   5.852   7.839   2.783
 6549SOL    HW230327   5.876   7.867   2.624
 6550SOL     OW30328   7.057   7.146   4.194
 6550SOL    HW130329   7.104   7.166   4.280
 6550SOL    HW230330   6.979   7.208   4.183
 6551SOL     OW30331   3.661   2.370   4.122
 6551SOL    HW130332   3.662   2.381   4.023
 6551SOL    HW230333   3.732   2.305   4.149
 6552SOL     OW30334   8.322   0.042   1.362
 6552SOL    HW130335   8.285   9.979   1.431
 6552SOL    HW230336   8.248   0.097   1.325
 6553SOL     OW30337   8.188   3.006   1.978
 6553SOL    HW130338   8.239   2.944   2.037
 6553SOL    HW230339   8.172   2.962   1.890
 6554SOL     OW30340   7.582   4.992   3.902
 6554SOL    HW130341   7.561   5.004   3.805
 6554SOL    HW230342   7.679   5.011   3.918
 6555SOL     OW30343   6.410   9.052   2.141
 6555SOL    HW130344   6.370   9.140   2.115
 6555SOL    HW230345   6.508   9.054   2.124
 6556SOL     OW30346   8.417   0.861   0.678
 6556SOL    HW130347   8.381   0.825   0.592
 6556SOL    HW230348   8.424   0.960   0.672
 6557SOL     OW30349   0.205   0.329   4.111
 6557SOL    HW130350   0.189   0.383   4.194
 6557SOL    HW230351   0.295   0.352   4.073
 6558SOL     OW30352   2.296   4.516   3.981
 6558SOL    HW130353   2.362   4.558   3.919
 6558SOL    HW230354   2.335   4.512   4.073
 6559SOL     OW30355   0.403   8.285   2.352
 6559SOL    HW130356   0.422   8.369   2.403
 6559SOL    HW230357   0.459   8.211   2.389
 6560SOL     OW30358   3.027   3.415   1.699
 6560SOL    HW130359   2.992   3.348   1.764
 6560SOL    HW230360   2.955   3.481   1.677
 6561SOL     OW30361   0.877   7.691   1.850
 6561SOL    HW130362   0.976   7.694   1.841
 6561SOL    HW230363   0.852   7.644   1.935
 6562SOL     OW30364   0.195   2.264   3.299
 6562SOL    HW130365   0.141   2.347   3.315
 6562SOL    HW230366   0.282   2.271   3.347
 6563SOL     OW30367   0.652   6.267   1.303
 6563SOL    HW130368   0.691   6.202   1.369
 6563SOL    HW230369   0.622   6.217   1.222
 6564SOL     OW30370   9.890   2.867   2.163
 6564SOL    HW130371   9.892   2.956   2.208
 6564SOL    HW230372   9.804   2.821   2.183
 6565SOL     OW30373   8.035   3.396   3.703
 6565SOL    HW130374   8.021   3.324   3.635
 6565SOL    HW230375   7.969   3.384   3.778
 6566SOL     OW30376   2.240   0.180   0.358
 6566SOL    HW130377   2.223   0.092   0.402
 6566SOL    HW230378   2.291   0.165   0.273
 6567SOL     OW30379   8.678   0.263   1.016
 6567SOL    HW130380   8.775   0.275   1.039
 6567SOL    HW230381   8.635   0.353   1.009
 6568SOL     OW30382   1.042   6.730   1.096
 6568SOL    HW130383   1.081   6.801   1.037
 6568SOL    HW230384   0.971   6.680   1.045
 6569SOL     OW30385   0.367   4.244   2.411
 6569SOL    HW130386   0.403   4.175   2.349
 6569SOL    HW230387   0.281   4.212   2.451
 6570SOL     OW30388   5.154   9.628   2.583
 6570SOL    HW130389   5.226   9.692   2.611
 6570SOL    HW230390   5.139   9.561   2.656
 6571SOL     OW30391   2.815   9.735   0.137
 6571SOL    HW130392   2.809   9.653   0.193
 6571SOL    HW230393   2.910   9.750   0.109
 6572SOL     OW30394   1.634   0.352   0.500
 6572SOL    HW130395   1.570   0.378   0.427
 6572SOL    HW230396   1.727   0.353   0.464
 6573SOL     OW30397   9.149   5.728   0.511
 6573SOL    HW130398   9.120   5.632   0.507
 6573SOL    HW230399   9.141   5.768   0.420
 6574SOL     OW30400   2.758   9.786   4.317
 6574SOL    HW130401   2.742   9.853   4.389
 6574SOL    HW230402   2.847   9.804   4.273
 6575SOL     OW30403   4.599   1.752   1.598
 6575SOL    HW130404   4.644   1.838   1.622
 6575SOL    HW230405   4.655   1.702   1.531
 6576SOL     OW30406   9.953   1.630   0.111
 6576SOL    HW130407   0.052   1.616   0.118
 6576SOL    HW230408   9.933   1.728   0.119
 6577SOL     OW30409   4.536   1.246   0.621
 6577SOL    HW130410   4.581   1.236   0.532
 6577SOL    HW230411   4.602   1.279   0.689
 6578SOL     OW30412   8.264   5.909   2.699
 6578SOL    HW130413   8.191   5.875   2.639
 6578SOL    HW230414   8.255   5.866   2.789
 6579SOL     OW30415   1.243   1.975   2.861
 6579SOL    HW130416   1.222   2.010   2.770
 6579SOL    HW230417   1.157   1.957   2.910
 6580SOL     OW30418   2.158   0.283   4.021
 6580SOL    HW130419   2.230   0.242   4.077
 6580SOL    HW230420   2.075   0.227   4.026
 6581SOL     OW30421   9.829   2.108   0.460
 6581SOL    HW130422   9.767   2.180   0.491
 6581SOL    HW230423   9.780   2.046   0.399
 6582SOL     OW30424   5.149   9.656   4.243
 6582SOL    HW130425   5.208   9.600   4.301
 6582SOL    HW230426   5.108   9.598   4.172
 6583SOL     OW30427   7.275   5.364   3.915
 6583SOL    HW130428   7.279   5.382   3.817
 6583SOL    HW230429   7.360   5.318   3.944
 6584SOL     OW30430   8.868   9.066   3.441
 6584SOL    HW130431   8.925   9.140   3.475
 6584SOL    HW230432   8.829   9.014   3.517
 6585SOL     OW30433   7.285   1.369   3.411
 6585SOL    HW130434   7.329   1.361   3.322
 6585SOL    HW230435   7.307   1.288   3.466
 6586SOL     OW30436   2.788   8.081   4.240
 6586SOL    HW130437   2.760   8.104   4.147
 6586SOL    HW230438   2.785   8.164   4.296
 6587SOL     OW30439   3.226   2.572   2.909
 6587SOL    HW130440   3.217   2.482   2.867
 6587SOL    HW230441   3.137   2.619   2.905
 6588SOL     OW30442   8.951   4.789   3.092
 6588SOL    HW130443   8.915   4.876   3.126
 6588SOL    HW230444   8.914   4.771   3.001
 6589SOL     OW30445   4.259   6.984   1.861
 6589SOL    HW130446   4.319   7.015   1.935
 6589SOL    HW230447   4.186   6.927   1.899
 6590SOL     OW30448   3.820   1.354   3.813
 6590SOL    HW130449   3.757   1.277   3.814
 6590SOL    HW230450   3.773   1.435   3.776
 6591SOL     OW30451   7.088   2.049   2.848
 6591SOL    HW130452   6.997   2.092   2.852
 6591SOL    HW230453   7.085   1.970   2.787
 6592SOL     OW30454   3.653   9.042   0.675
 6592SOL    HW130455   3.644   9.052   0.576
 6592SOL    HW230456   3.736   8.990   0.696
 6593SOL     OW30457   2.488   3.531   3.014
 6593SOL    HW130458   2.464   3.451   2.959
 6593SOL    HW230459   2.413   3.596   3.015
 6594SOL     OW30460   9.899   9.912   1.372
 6594SOL    HW130461   9.928   9.828   1.418
 6594SOL    HW230462   9.952   9.924   1.289
 6595SOL     OW30463   3.084   0.828   3.777
 6595SOL    HW130464   3.144   0.764   3.824
 6595SOL    HW230465   3.021   0.869   3.842
 6596SOL     OW30466   0.031   2.016   2.571
 6596SOL    HW130467   0.058   1.987   2.663
 6596SOL    HW230468   9.978   1.944   2.528
 6597SOL     OW30469   0.862   6.822   0.115
 6597SOL    HW130470   0.819   6.903   0.156
 6597SOL    HW230471   0.947   6.801   0.163
 6598SOL     OW30472   3.465   5.819   3.447
 6598SOL    HW130473   3.452   5.767   3.362
 6598SOL    HW230474   3.515   5.903   3.426
 6599SOL     OW30475   8.660   5.928   2.347
 6599SOL    HW130476   8.610   5.916   2.434
 6599SOL    HW230477   8.655   6.023   2.318
 6600SOL     OW30478   2.524   1.996   1.911
 6600SOL    HW130479   2.588   1.919   1.914
 6600SOL    HW230480   2.450   1.981   1.977
 6601SOL     OW30481   1.266   8.656   3.363
 6601SOL    HW130482   1.243   8.688   3.271
 6601SOL    HW230483   1.209   8.577   3.386
 6602SOL     OW30484   8.490   8.415   0.224
 6602SOL    HW130485   8.408   8.437   0.277
 6602SOL    HW230486   8.543   8.498   0.208
 6603SOL     OW30487   3.807   9.440   3.401
 6603SOL    HW130488   3.851   9.528   3.383
 6603SOL    HW230489   3.720   9.436   3.353
 6604SOL     OW30490   2.313   3.101   0.039
 6604SOL    HW130491   2.266   3.022   0.078
 6604SOL    HW230492   2.295   3.182   0.094
 6605SOL     OW30493   2.118   3.092   0.771
 6605SOL    HW130494   2.031   3.137   0.793
 6605SOL    HW230495   2.138   3.105   0.674
 6606SOL     OW30496   4.798   1.295   0.440
 6606SOL    HW130497   4.738   1.362   0.395
 6606SOL    HW230498   4.839   1.337   0.521
 6607SOL     OW30499   4.383   7.082   2.089
 6607SOL    HW130500   4.363   7.179   2.080
 6607SOL    HW230501   4.316   7.039   2.150
 6608SOL     OW30502   2.246   0.936   0.155
 6608SOL    HW130503   2.329   0.916   0.103
 6608SOL    HW230504   2.203   0.850   0.182
 6609SOL     OW30505   3.319   0.741   4.343
 6609SOL    HW130506   3.404   0.794   4.352
 6609SOL    HW230507   3.241   0.804   4.338
 6610SOL     OW30508   6.770   8.716   1.467
 6610SOL    HW130509   6.784   8.780   1.392
 6610SOL    HW230510   6.674   8.717   1.494
 6611SOL     OW30511   4.570   2.148   1.014
 6611SOL    HW130512   4.636   2.203   0.962
 6611SOL    HW230513   4.557   2.188   1.105
 6612SOL     OW30514   9.716   0.872   0.346
 6612SOL    HW130515   9.677   0.824   0.268
 6612SOL    HW230516   9.705   0.817   0.428
 6613SOL     OW30517   4.519   4.679   2.165
 6613SOL    HW130518   4.462   4.615   2.216
 6613SOL    HW230519   4.464   4.722   2.093
 6614SOL     OW30520   4.675   0.298   2.405
 6614SOL    HW130521   4.612   0.249   2.345
 6614SOL    HW230522   4.628   0.375   2.448
 6615SOL     OW30523   1.732   5.506   1.927
 6615SOL    HW130524   1.787   5.580   1.965
 6615SOL    HW230525   1.792   5.431   1.899
 6616SOL     OW30526   9.016   7.094   4.058
 6616SOL    HW130527   9.086   7.162   4.080
 6616SOL    HW230528   8.981   7.053   4.142
 6617SOL     OW30529   8.820   9.042   4.420
 6617SOL    HW130530   8.844   9.139   4.419
 6617SOL    HW230531   8.780   9.017   4.332
 6618SOL     OW30532   0.426   2.702   0.128
 6618SOL    HW130533   0.444   2.633   0.058
 6618SOL    HW230534   0.331   2.694   0.159
 6619SOL     OW30535   4.930   3.732   2.045
 6619SOL    HW130536   4.962   3.808   1.988
 6619SOL    HW230537   4.881   3.769   2.124
 6620SOL     OW30538   9.427   2.055   4.140
 6620SOL    HW130539   9.488   2.134   4.131
 6620SOL    HW230540   9.355   2.060   4.071
 6621SOL     OW30541   3.833   8.063   2.500
 6621SOL    HW130542   3.765   7.991   2.488
 6621SOL    HW230543   3.787   8.151   2.508
 6622SOL     OW30544   2.096   8.137   4.356
 6622SOL    HW130545   2.002   8.127   4.387
 6622SOL    HW230546   2.098   8.181   4.267
 6623SOL     OW30547   4.923   1.018   3.090
 6623SOL    HW130548   4.953   1.106   3.126
 6623SOL    HW230549   4.988   0.947   3.115
 6624SOL     OW30550   0.828   7.902   0.688
 6624SOL    HW130551   0.898   7.836   0.716
 6624SOL    HW230552   0.764   7.917   0.763
 6625SOL     OW30553   4.613   0.910   1.601
 6625SOL    HW130554   4.577   0.827   1.558
 6625SOL    HW230555   4.624   0.895   1.699
 6626SOL     OW30556   1.586   9.919   1.530
 6626SOL    HW130557   1.655   9.984   1.562
 6626SOL    HW230558   1.534   9.959   1.454
 6627SOL     OW30559   8.301   2.111   1.805
 6627SOL    HW130560   8.299   2.041   1.876
 6627SOL    HW230561   8.247   2.190   1.834
 6628SOL     OW30562   1.292   3.814   0.920
 6628SOL    HW130563   1.390   3.793   0.921
 6628SOL    HW230564   1.241   3.732   0.948
 6629SOL     OW30565   0.406   5.419   1.579
 6629SOL    HW130566   0.417   5.341   1.517
 6629SOL    HW230567   0.412   5.504   1.528
 6630SOL     OW30568   8.051   3.944   3.911
 6630SOL    HW130569   7.955   3.949   3.938
 6630SOL    HW230570   8.100   3.882   3.974
 6631SOL     OW30571   2.703   5.661   1.987
 6631SOL    HW130572   2.628   5.690   1.927
 6631SOL    HW230573   2.668   5.647   2.079
 6632SOL     OW30574   2.153   1.748   3.020
 6632SOL    HW130575   2.099   1.702   3.091
 6632SOL    HW230576   2.159   1.690   2.939
 6633SOL     OW30577   5.053   8.620   4.030
 6633SOL    HW130578   4.983   8.687   4.055
 6633SOL    HW230579   5.138   8.640   4.079
 6634SOL     OW30580   5.295   9.497   2.378
 6634SOL    HW130581   5.242   9.540   2.452
 6634SOL    HW230582   5.355   9.565   2.336
 6635SOL     OW30583   2.495   8.934   0.615
 6635SOL    HW130584   2.519   8.858   0.554
 6635SOL    HW230585   2.449   8.898   0.696
 6636SOL     OW30586   0.522   1.020   1.805
 6636SOL    HW130587   0.526   0.995   1.708
 6636SOL    HW230588   0.615   1.025   1.842
 6637SOL     OW30589   0.588   2.054   3.501
 6637SOL    HW130590   0.639   2.058   3.586
 6637SOL    HW230591   0.565   1.959   3.480
 6638SOL     OW30592   8.183   9.450   2.882
 6638SOL    HW130593   8.217   9.370   2.931
 6638SOL    HW230594   8.260   9.506   2.851
 6639SOL     OW30595   6.945   6.647   3.880
 6639SOL    HW130596   7.041   6.629   3.861
 6639SOL    HW230597   6.892   6.642   3.796
 6640SOL     OW30598   0.786   3.094   3.566
 6640SOL    HW130599   0.768   3.032   3.490
 6640SOL    HW230600   0.765   3.048   3.652
 6641SOL     OW30601   4.295   1.833   0.502
 6641SOL    HW130602   4.327   1.741   0.525
 6641SOL    HW230603   4.235   1.866   0.575
 6642SOL     OW30604   0.282   3.849   0.414
 6642SOL    HW130605   0.253   3.817   0.324
 6642SOL    HW230606   0.271   3.948   0.420
 6643SOL     OW30607   7.583   8.418   2.047
 6643SOL    HW130608   7.549   8.483   2.115
 6643SOL    HW230609   7.623   8.339   2.092
 6644SOL     OW30610   3.538   7.920   0.918
 6644SOL    HW130611   3.573   7.853   0.984
 6644SOL    HW230612   3.440   7.906   0.906
 6645SOL     OW30613   0.969   9.961   2.132
 6645SOL    HW130614   0.917   9.877   2.144
 6645SOL    HW230615   1.055   9.940   2.084
 6646SOL     OW30616   8.160   5.280   2.030
 6646SOL    HW130617   8.082   5.332   2.064
 6646SOL    HW230618   8.245   5.316   2.069
 6647SOL     OW30619   3.190   3.363   2.234
 6647SOL    HW130620   3.284   3.365   2.268
 6647SOL    HW230621   3.189   3.324   2.142
 6648SOL     OW30622   7.637   2.208   1.015
 6648SOL    HW130623   7.615   2.299   1.051
 6648SOL    HW230624   7.592   2.196   0.926
 6649SOL     OW30625   6.748   0.111   2.066
 6649SOL    HW130626   6.702   0.047   2.127
 6649SOL    HW230627   6.846   0.093   2.065
 6650SOL     OW30628   2.087   7.376   4.047
 6650SOL    HW130629   2.185   7.356   4.052
 6650SOL    HW230630   2.074   7.475   4.055
 6651SOL     OW30631   7.561   3.450   0.752
 6651SOL    HW130632   7.613   3.451   0.838
 6651SOL    HW230633   7.495   3.375   0.755
 6652SOL     OW30634   0.879   9.846   1.598
 6652SOL    HW130635   0.951   9.779   1.616
 6652SOL    HW230636   0.911   9.911   1.528
 6653SOL     OW30637   5.348   1.123   1.927
 6653SOL    HW130638   5.278   1.171   1.875
 6653SOL    HW230639   5.386   1.049   1.871
 6654SOL     OW30640   4.519   4.460   0.732
 6654SOL    HW130641   4.602   4.430   0.684
 6654SOL    HW230642   4.513   4.560   0.730
 6655SOL     OW30643   3.986   3.732   4.158
 6655SOL    HW130644   3.924   3.779   4.221
 6655SOL    HW230645   4.049   3.674   4.210
 6656SOL     OW30646   0.354   4.347   2.848
 6656SOL    HW130647   0.406   4.318   2.768
 6656SOL    HW230648   0.417   4.367   2.923
 6657SOL     OW30649   6.751   0.585   2.026
 6657SOL    HW130650   6.764   0.503   2.081
 6657SOL    HW230651   6.655   0.593   2.000
 6658SOL     OW30652   9.076   4.457   0.660
 6658SOL    HW130653   8.996   4.482   0.716
 6658SOL    HW230654   9.148   4.524   0.675
 6659SOL     OW30655   8.799   3.777   2.492
 6659SOL    HW130656   8.823   3.689   2.534
 6659SOL    HW230657   8.736   3.826   2.553
 6660SOL     OW30658   2.806   0.709   0.743
 6660SOL    HW130659   2.731   0.721   0.807
 6660SOL    HW230660   2.812   0.790   0.683
 6661SOL     OW30661   1.988   7.738   2.023
 6661SOL    HW130662   2.047   7.781   1.955
 6661SOL    HW230663   1.908   7.797   2.040
 6662SOL     OW30664   2.196   2.406   2.950
 6662SOL    HW130665   2.292   2.380   2.947
 6662SOL    HW230666   2.166   2.414   3.045
 6663SOL     OW30667   7.796   3.965   4.007
 6663SOL    HW130668   7.799   3.978   4.106
 6663SOL    HW230669   7.724   4.024   3.969
 6664SOL     OW30670   9.985   1.268   1.050
 6664SOL    HW130671   0.057   1.311   0.996
 6664SOL    HW230672   9.987   1.169   1.035
 6665SOL     OW30673   1.114   8.439   3.403
 6665SOL    HW130674   1.163   8.353   3.392
 6665SOL    HW230675   1.017   8.424   3.383
 6666SOL     OW30676   4.576   3.470   1.045
 6666SOL    HW130677   4.625   3.476   1.132
 6666SOL    HW230678   4.638   3.434   0.975
 6667SOL     OW30679   3.526   6.236   2.878
 6667SOL    HW130680   3.429   6.251   2.899
 6667SOL    HW230681   3.535   6.213   2.781
 6668SOL     OW30682   8.429   5.263   2.392
 6668SOL    HW130683   8.411   5.213   2.477
 6668SOL    HW230684   8.521   5.241   2.359
 6669SOL     OW30685   2.212   5.211   3.084
 6669SOL    HW130686   2.136   5.243   3.140
 6669SOL    HW230687   2.292   5.271   3.099
 6670SOL     OW30688   5.890   9.966   0.987
 6670SOL    HW130689   5.839   0.043   0.948
 6670SOL    HW230690   5.849   9.939   1.074
 6671SOL     OW30691   8.385   5.382   2.145
 6671SOL    HW130692   8.466   5.438   2.131
 6671SOL    HW230693   8.398   5.326   2.227
 6672SOL     OW30694   2.116   0.495   1.945
 6672SOL    HW130695   2.130   0.481   1.847
 6672SOL    HW230696   2.055   0.424   1.980
 6673SOL     OW30697   8.405   7.599   3.979
 6673SOL    HW130698   8.499   7.568   3.963
 6673SOL    HW230699   8.343   7.546   3.921
 6674SOL     OW30700   3.762   0.487   0.252
 6674SOL    HW130701   3.673   0.444   0.264
 6674SOL    HW230702   3.759   0.581   0.285
 6675SOL     OW30703   3.294   4.508   1.882
 6675SOL    HW130704   3.319   4.572   1.955
 6675SOL    HW230705   3.263   4.559   1.802
 6676SOL     OW30706   0.169   8.364   3.240
 6676SOL    HW130707   0.127   8.435   3.185
 6676SOL    HW230708   0.135   8.370   3.334
 6677SOL     OW30709   7.970   1.177   3.996
 6677SOL    HW130710   8.024   1.238   4.053
 6677SOL    HW230711   8.012   1.169   3.906
 6678SOL     OW30712   0.682   1.006   2.516
 6678SOL    HW130713   0.687   1.101   2.485
 6678SOL    HW230714   0.762   0.985   2.571
 6679SOL     OW30715   1.391   3.461   3.201
 6679SOL    HW130716   1.488   3.476   3.219
 6679SOL    HW230717   1.373   3.475   3.103
 6680SOL     OW30718   3.585   5.384   2.714
 6680SOL    HW130719   3.567   5.420   2.805
 6680SOL    HW230720   3.537   5.297   2.703
 6681SOL     OW30721   9.711   9.794   1.101
 6681SOL    HW130722   9.702   9.892   1.083
 6681SOL    HW230723   9.769   9.752   1.031
 6682SOL     OW30724   5.739   8.507   3.169
 6682SOL    HW130725   5.770   8.537   3.078
 6682SOL    HW230726   5.818   8.500   3.230
 6683SOL     OW30727   4.073   3.418   0.705
 6683SOL    HW130728   4.054   3.414   0.607
 6683SOL    HW230729   4.120   3.334   0.733
 6684SOL     OW30730   0.570   8.049   0.384
 6684SOL    HW130731   0.584   8.146   0.406
 6684SOL    HW230732   0.520   8.041   0.298
 6685SOL     OW30733   0.155   4.076   2.482
 6685SOL    HW130734   0.126   4.037   2.395
 6685SOL    HW230735   0.213   4.009   2.531
 6686SOL     OW30736   9.195   1.462   3.449
 6686SOL    HW130737   9.272   1.441   3.389
 6686SOL    HW230738   9.120   1.399   3.430
 6687SOL     OW30739   4.468   2.374   0.329
 6687SOL    HW130740   4.560   2.340   0.309
 6687SOL    HW230741   4.468   2.474   0.328
 6688SOL     OW30742   0.696   8.500   3.153
 6688SOL    HW130743   0.645   8.534   3.232
 6688SOL    HW230744   0.691   8.400   3.151
 6689SOL     OW30745   2.747   9.010   3.158
 6689SOL    HW130746   2.762   9.083   3.091
 6689SOL    HW230747   2.751   9.049   3.250
 6690SOL     OW30748   8.665   4.220   2.941
 6690SOL    HW130749   8.604   4.260   2.872
 6690SOL    HW230750   8.675   4.285   3.017
 6691SOL     OW30751   9.111   5.160   3.198
 6691SOL    HW130752   9.206   5.145   3.170
 6691SOL    HW230753   9.096   5.257   3.217
 6692SOL     OW30754   3.375   9.685   2.906
 6692SOL    HW130755   3.395   9.587   2.894
 6692SOL    HW230756   3.460   9.737   2.901
 6693SOL     OW30757   9.733   3.879   1.927
 6693SOL    HW130758   9.811   3.887   1.864
 6693SOL    HW230759   9.687   3.792   1.911
 6694SOL     OW30760   3.292   7.098   0.095
 6694SOL    HW130761   3.197   7.129   0.096
 6694SOL    HW230762   3.352   7.174   0.072
 6695SOL     OW30763   8.387   8.787   3.898
 6695SOL    HW130764   8.442   8.704   3.893
 6695SOL    HW230765   8.426   8.850   3.964
 6696SOL     OW30766   6.876   0.557   2.465
 6696SOL    HW130767   6.832   0.468   2.447
 6696SOL    HW230768   6.823   0.607   2.533
 6697SOL     OW30769   8.081   0.637   0.853
 6697SOL    HW130770   8.048   0.670   0.765
 6697SOL    HW230771   8.159   0.693   0.882
 6698SOL     OW30772   7.684   8.215   3.699
 6698SOL    HW130773   7.718   8.147   3.633
 6698SOL    HW230774   7.590   8.192   3.724
 6699SOL     OW30775   2.268   5.672   2.424
 6699SOL    HW130776   2.315   5.591   2.459
 6699SOL    HW230777   2.186   5.644   2.373
 6700SOL     OW30778   4.924   4.683   0.923
 6700SOL    HW130779   4.965   4.635   0.845
 6700SOL    HW230780   4.973   4.769   0.939
 6701SOL     OW30781   9.090   6.162   2.758
 6701SOL    HW130782   9.028   6.190   2.831
 6701SOL    HW230783   9.043   6.097   2.698
 6702SOL     OW30784   9.655   3.848   0.280
 6702SOL    HW130785   9.648   3.851   0.380
 6702SOL    HW230786   9.579   3.900   0.240
 6703SOL     OW30787   2.477   8.722   2.075
 6703SOL    HW130788   2.544   8.795   2.088
 6703SOL    HW230789   2.467   8.670   2.161
 6704SOL     OW30790   3.917   9.252   0.420
 6704SOL    HW130791   3.998   9.309   0.415
 6704SOL    HW230792   3.855   9.275   0.345
 6705SOL     OW30793   7.340   2.185   3.185
 6705SOL    HW130794   7.283   2.221   3.112
 6705SOL    HW230795   7.296   2.104   3.225
 6706SOL     OW30796   5.864   0.748   4.004
 6706SOL    HW130797   5.863   0.783   4.098
 6706SOL    HW230798   5.907   0.815   3.944
 6707SOL     OW30799   1.577   6.775   1.453
 6707SOL    HW130800   1.525   6.806   1.532
 6707SOL    HW230801   1.524   6.792   1.370
 6708SOL     OW30802   0.349   1.704   2.464
 6708SOL    HW130803   0.287   1.723   2.539
 6708SOL    HW230804   0.318   1.751   2.382
 6709SOL     OW30805   4.807   8.653   2.930
 6709SOL    HW130806   4.790   8.710   2.849
 6709SOL    HW230807   4.814   8.711   3.011
 6710SOL     OW30808   4.898   7.561   1.969
 6710SOL    HW130809   4.832   7.614   1.917
 6710SOL    HW230810   4.891   7.464   1.944
 6711SOL     OW30811   8.728   3.042   3.689
 6711SOL    HW130812   8.656   3.003   3.632
 6711SOL    HW230813   8.759   2.973   3.755
 6712SOL     OW30814   4.491   5.218   1.805
 6712SOL    HW130815   4.452   5.310   1.812
 6712SOL    HW230816   4.582   5.217   1.845
 6713SOL     OW30817   7.588   7.285   2.086
 6713SOL    HW130818   7.522   7.313   2.016
 6713SOL    HW230819   7.589   7.352   2.160
 6714SOL     OW30820   1.103   2.639   2.957
 6714SOL    HW130821   1.045   2.612   3.034
 6714SOL    HW230822   1.125   2.736   2.964
 6715SOL     OW30823   1.826   8.958   0.582
 6715SOL    HW130824   1.898   9.027   0.595
 6715SOL    HW230825   1.868   8.868   0.576
 6716SOL     OW30826   7.157   9.067   3.976
 6716SOL    HW130827   7.212   9.087   4.057
 6716SOL    HW230828   7.146   8.968   3.968
 6717SOL     OW30829   8.144   5.003   2.003
 6717SOL    HW130830   8.094   4.989   1.917
 6717SOL    HW230831   8.145   5.101   2.025
 6718SOL     OW30832   8.775   4.263   0.402
 6718SOL    HW130833   8.844   4.200   0.439
 6718SOL    HW230834   8.757   4.335   0.470
 6719SOL     OW30835   8.254   6.885   2.888
 6719SOL    HW130836   8.239   6.824   2.966
 6719SOL    HW230837   8.346   6.869   2.852
 6720SOL     OW30838   7.948   0.719   0.185
 6720SOL    HW130839   7.897   0.636   0.162
 6720SOL    HW230840   7.884   0.794   0.203
 6721SOL     OW30841   6.183   9.671   3.958
 6721SOL    HW130842   6.148   9.726   3.882
 6721SOL    HW230843   6.139   9.581   3.957
 6722SOL     OW30844   2.218   0.255   2.169
 6722SOL    HW130845   2.277   0.335   2.156
 6722SOL    HW230846   2.127   0.274   2.131
 6723SOL     OW30847   4.769   4.450   0.601
 6723SOL    HW130848   4.738   4.527   0.545
 6723SOL    HW230849   4.847   4.478   0.656
 6724SOL     OW30850   4.560   9.575   0.119
 6724SOL    HW130851   4.549   9.478   0.141
 6724SOL    HW230852   4.629   9.615   0.179
 6725SOL     OW30853   2.741   2.802   2.050
 6725SOL    HW130854   2.681   2.724   2.071
 6725SOL    HW230855   2.708   2.847   1.967
 6726SOL     OW30856   7.130   1.258   2.725
 6726SOL    HW130857   7.169   1.193   2.659
 6726SOL    HW230858   7.053   1.306   2.681
 6727SOL     OW30859   1.850   6.695   0.999
 6727SOL    HW130860   1.841   6.732   0.907
 6727SOL    HW230861   1.947   6.685   1.021
 6728SOL     OW30862   9.929   8.681   2.594
 6728SOL    HW130863   0.018   8.663   2.552
 6728SOL    HW230864   9.863   8.703   2.522
 6729SOL     OW30865   9.250   7.379   3.463
 6729SOL    HW130866   9.270   7.382   3.561
 6729SOL    HW230867   9.327   7.416   3.412
 6730SOL     OW30868   9.527   5.499   3.610
 6730SOL    HW130869   9.435   5.526   3.580
 6730SOL    HW230870   9.569   5.573   3.662
 6731SOL     OW30871   2.828   3.959   3.566
 6731SOL    HW130872   2.823   3.901   3.647
 6731SOL    HW230873   2.742   3.952   3.515
 6732SOL     OW30874   3.581   9.860   1.178
 6732SOL    HW130875   3.652   9.922   1.144
 6732SOL    HW230876   3.574   9.781   1.117
 6733SOL     OW30877   6.647   9.298   2.949
 6733SOL    HW130878   6.717   9.368   2.956
 6733SOL    HW230879   6.649   9.258   2.857
 6734SOL     OW30880   9.525   7.753   3.899
 6734SOL    HW130881   9.522   7.717   3.806
 6734SOL    HW230882   9.543   7.852   3.896
 6735SOL     OW30883   9.208   5.978   2.931
 6735SOL    HW130884   9.153   5.896   2.915
 6735SOL    HW230885   9.185   6.047   2.862
 6736SOL     OW30886   2.433   1.432   1.377
 6736SOL    HW130887   2.352   1.374   1.371
 6736SOL    HW230888   2.439   1.471   1.469
 6737SOL     OW30889   1.451   2.005   1.866
 6737SOL    HW130890   1.417   1.913   1.885
 6737SOL    HW230891   1.547   2.001   1.840
 6738SOL     OW30892   1.669   6.535   1.345
 6738SOL    HW130893   1.633   6.455   1.393
 6738SOL    HW230894   1.634   6.618   1.388
 6739SOL     OW30895   7.674   3.958   0.950
 6739SOL    HW130896   7.746   4.027   0.937
 6739SOL    HW230897   7.716   3.873   0.982
 6740SOL     OW30898   0.426   1.217   3.400
 6740SOL    HW130899   0.472   1.209   3.311
 6740SOL    HW230900   0.398   1.312   3.415
 6741SOL     OW30901   2.271   3.706   2.565
 6741SOL    HW130902   2.248   3.766   2.643
 6741SOL    HW230903   2.343   3.643   2.593
 6742SOL     OW30904   1.304   4.582   2.200
 6742SOL    HW130905   1.279   4.587   2.103
 6742SOL    HW230906   1.230   4.618   2.256
 6743SOL     OW30907   9.053   0.695   1.382
 6743SOL    HW130908   9.117   0.771   1.398
 6743SOL    HW230909   8.960   0.726   1.399
 6744SOL     OW30910   1.632   3.551   3.808
 6744SOL    HW130911   1.603   3.510   3.895
 6744SOL    HW230912   1.559   3.541   3.741
 6745SOL     OW30913   3.456   8.886   2.609
 6745SOL    HW130914   3.539   8.838   2.636
 6745SOL    HW230915   3.473   8.984   2.606
 6746SOL     OW30916   6.048   1.344   3.941
 6746SOL    HW130917   6.109   1.376   4.013
 6746SOL    HW230918   6.013   1.422   3.889
 6747SOL     OW30919   2.412   5.513   1.723
 6747SOL    HW130920   2.386   5.417   1.713
 6747SOL    HW230921   2.444   5.549   1.635
 6748SOL     OW30922   1.040   0.703   1.445
 6748SOL    HW130923   1.013   0.785   1.394
 6748SOL    HW230924   1.058   0.727   1.540
 6749SOL     OW30925   3.470   3.018   3.886
 6749SOL    HW130926   3.415   2.973   3.955
 6749SOL    HW230927   3.540   2.955   3.852
 6750SOL     OW30928   9.990   7.709   0.320
 6750SOL    HW130929   0.035   7.630   0.361
 6750SOL    HW230930   0.037   7.735   0.236
 6751SOL     OW30931   7.999   4.207   4.305
 6751SOL    HW130932   7.961   4.274   4.240
 6751SOL    HW230933   8.080   4.246   4.349
 6752SOL     OW30934   7.709   2.940   0.374
 6752SOL    HW130935   7.646   2.875   0.416
 6752SOL    HW230936   7.773   2.891   0.314
 6753SOL     OW30937   4.497   8.800   0.557
 6753SOL    HW130938   4.541   8.714   0.533
 6753SOL    HW230939   4.428   8.785   0.628
 6754SOL     OW30940   0.531   9.558   1.242
 6754SOL    HW130941   0.627   9.579   1.226
 6754SOL    HW230942   0.492   9.624   1.307
 6755SOL     OW30943   4.299   8.884   3.753
 6755SOL    HW130944   4.256   8.836   3.676
 6755SOL    HW230945   4.375   8.939   3.719
 6756SOL     OW30946   1.840   5.729   2.061
 6756SOL    HW130947   1.924   5.779   2.039
 6756SOL    HW230948   1.765   5.793   2.074
 6757SOL     OW30949   7.861   2.641   0.489
 6757SOL    HW130950   7.846   2.635   0.390
 6757SOL    HW230951   7.930   2.575   0.517
 6758SOL     OW30952   7.705   2.049   2.828
 6758SOL    HW130953   7.732   2.137   2.790
 6758SOL    HW230954   7.667   2.062   2.920
 6759SOL     OW30955   3.103   7.649   0.542
 6759SOL    HW130956   3.148   7.728   0.585
 6759SOL    HW230957   3.067   7.589   0.613
 6760SOL     OW30958   2.126   8.501   1.064
 6760SOL    HW130959   2.041   8.539   1.027
 6760SOL    HW230960   2.142   8.538   1.156
 6761SOL     OW30961   9.970   7.105   0.814
 6761SOL    HW130962   9.958   7.054   0.730
 6761SOL    HW230963   9.886   7.100   0.869
 6762SOL     OW30964   9.278   8.806   5.624
 6762SOL    HW130965   9.366   8.775   0.027
 6762SOL    HW230966   9.204   8.749   0.027
 6763SOL     OW30967   3.550   5.099   2.219
 6763SOL    HW130968   3.500   5.104   2.306
 6763SOL    HW230969   3.615   5.175   2.214
 6764SOL     OW30970   1.668   2.695   2.330
 6764SOL    HW130971   1.692   2.628   2.400
 6764SOL    HW230972   1.672   2.652   2.240
 6765SOL     OW30973   0.148   1.781   0.347
 6765SOL    HW130974   0.123   1.771   0.444
 6765SOL    HW230975   0.160   1.691   0.306
 6766SOL     OW30976   7.251   8.770   3.252
 6766SOL    HW130977   7.260   8.846   3.317
 6766SOL    HW230978   7.341   8.749   3.213
 6767SOL     OW30979   7.891   8.508   2.006
 6767SOL    HW130980   7.902   8.420   1.959
 6767SOL    HW230981   7.818   8.501   2.074
 6768SOL     OW30982   9.563   3.995   1.665
 6768SOL    HW130983   9.604   3.906   1.645
 6768SOL    HW230984   9.506   4.023   1.588
 6769SOL     OW30985   0.627   6.707   0.047
 6769SOL    HW130986   0.718   6.744   0.066
 6769SOL    HW230987   0.596   6.738   5.591
 6770SOL     OW30988   6.930   1.387   2.580
 6770SOL    HW130989   6.956   1.439   2.499
 6770SOL    HW230990   6.859   1.436   2.630
 6771SOL     OW30991   0.815   5.355   1.972
 6771SOL    HW130992   0.720   5.347   2.001
 6771SOL    HW230993   0.820   5.417   1.893
 6772SOL     OW30994   5.160   3.858   0.121
 6772SOL    HW130995   5.173   3.798   0.042
 6772SOL    HW230996   5.107   3.939   0.092
 6773SOL     OW30997   0.904   1.005   4.004
 6773SOL    HW130998   0.885   1.089   3.952
 6773SOL    HW230999   0.831   0.990   4.071
 6774SOL     OW31000   0.084   4.281   2.878
 6774SOL    HW131001   0.181   4.301   2.866
 6774SOL    HW231002   0.047   4.240   2.795
 6775SOL     OW31003   5.474   9.784   3.677
 6775SOL    HW131004   5.563   9.827   3.685
 6775SOL    HW231005   5.480   9.706   3.614
 6776SOL     OW31006   1.171   2.272   2.232
 6776SOL    HW131007   1.215   2.340   2.292
 6776SOL    HW231008   1.099   2.225   2.283
 6777SOL     OW31009   4.465   9.183   0.830
 6777SOL    HW131010   4.393   9.119   0.802
 6777SOL    HW231011   4.432   9.241   0.904
 6778SOL     OW31012   8.460   5.569   2.829
 6778SOL    HW131013   8.458   5.583   2.730
 6778SOL    HW231014   8.369   5.539   2.860
 6779SOL     OW31015   3.317   9.519   3.223
 6779SOL    HW131016   3.260   9.491   3.146
 6779SOL    HW231017   3.324   9.618   3.226
 6780SOL     OW31018   4.758   7.478   2.967
 6780SOL    HW131019   4.691   7.478   2.893
 6780SOL    HW231020   4.748   7.395   3.022
 6781SOL     OW31021   3.626   9.442   3.944
 6781SOL    HW131022   3.576   9.442   3.857
 6781SOL    HW231023   3.627   9.349   3.981
 6782SOL     OW31024   8.912   1.032   0.070
 6782SOL    HW131025   8.933   1.048   5.608
 6782SOL    HW231026   8.835   1.090   0.098
 6783SOL     OW31027   0.318   9.815   2.468
 6783SOL    HW131028   0.368   9.901   2.482
 6783SOL    HW231029   0.382   9.738   2.468
 6784SOL     OW31030   0.245   5.815   2.006
 6784SOL    HW131031   0.203   5.852   1.924
 6784SOL    HW231032   0.290   5.728   1.984
 6785SOL     OW31033   8.597   0.233   0.528
 6785SOL    HW131034   8.643   0.313   0.489
 6785SOL    HW231035   8.652   0.152   0.510
 6786SOL     OW31036   8.455   0.633   3.995
 6786SOL    HW131037   8.453   0.639   4.095
 6786SOL    HW231038   8.466   0.537   3.968
 6787SOL     OW31039   7.537   2.510   1.147
 6787SOL    HW131040   7.535   2.504   1.047
 6787SOL    HW231041   7.502   2.600   1.176
 6788SOL     OW31042   0.443   3.587   4.187
 6788SOL    HW131043   0.357   3.588   4.135
 6788SOL    HW231044   0.498   3.509   4.158
 6789SOL     OW31045   9.207   5.490   1.799
 6789SOL    HW131046   9.124   5.537   1.769
 6789SOL    HW231047   9.245   5.437   1.723
 6790SOL     OW31048   2.247   8.271   1.137
 6790SOL    HW131049   2.201   8.354   1.107
 6790SOL    HW231050   2.284   8.283   1.229
 6791SOL     OW31051   9.286   7.537   2.001
 6791SOL    HW131052   9.321   7.630   2.014
 6791SOL    HW231053   9.189   7.535   2.028
 6792SOL     OW31054   3.013   8.664   0.342
 6792SOL    HW131055   2.924   8.710   0.334
 6792SOL    HW231056   3.031   8.645   0.438
 6793SOL     OW31057   3.011   5.548   2.307
 6793SOL    HW131058   2.935   5.603   2.340
 6793SOL    HW231059   3.052   5.592   2.227
 6794SOL     OW31060   9.677   8.334   0.542
 6794SOL    HW131061   9.621   8.322   0.460
 6794SOL    HW231062   9.641   8.409   0.597
 6795SOL     OW31063   4.171   0.090   1.926
 6795SOL    HW131064   4.140   0.172   1.878
 6795SOL    HW231065   4.271   0.084   1.920
 6796SOL     OW31066   3.061   8.037   0.448
 6796SOL    HW131067   3.077   7.996   0.358
 6796SOL    HW231068   3.118   8.118   0.458
 6797SOL     OW31069   3.133   5.846   0.037
 6797SOL    HW131070   3.228   5.818   0.025
 6797SOL    HW231071   3.126   5.945   0.029
 6798SOL     OW31072   8.558   3.216   3.186
 6798SOL    HW131073   8.543   3.301   3.236
 6798SOL    HW231074   8.483   3.153   3.204
 6799SOL     OW31075   6.420   1.730   3.780
 6799SOL    HW131076   6.380   1.705   3.868
 6799SOL    HW231077   6.368   1.687   3.706
 6800SOL     OW31078   2.714   1.076   1.439
 6800SOL    HW131079   2.806   1.048   1.465
 6800SOL    HW231080   2.656   1.083   1.520
 6801SOL     OW31081   4.122   9.351   0.950
 6801SOL    HW131082   4.099   9.254   0.941
 6801SOL    HW231083   4.190   9.362   1.024
 6802SOL     OW31084   0.568   8.604   1.411
 6802SOL    HW131085   0.565   8.556   1.498
 6802SOL    HW231086   0.503   8.681   1.412
 6803SOL     OW31087   2.803   6.976   2.539
 6803SOL    HW131088   2.718   7.000   2.492
 6803SOL    HW231089   2.881   7.013   2.487
 6804SOL     OW31090   0.440   7.832   1.528
 6804SOL    HW131091   0.484   7.922   1.519
 6804SOL    HW231092   0.496   7.763   1.483
 6805SOL     OW31093   0.089   0.948   0.627
 6805SOL    HW131094   0.158   0.876   0.640
 6805SOL    HW231095   0.121   1.032   0.671
 6806SOL     OW31096   3.543   0.164   3.417
 6806SOL    HW131097   3.499   0.115   3.342
 6806SOL    HW231098   3.480   0.233   3.452
 6807SOL     OW31099   0.831   2.989   0.637
 6807SOL    HW131100   0.923   2.949   0.644
 6807SOL    HW231101   0.811   3.041   0.721
 6808SOL     OW31102   0.370   6.946   0.606
 6808SOL    HW131103   0.319   6.961   0.691
 6808SOL    HW231104   0.465   6.973   0.619
 6809SOL     OW31105   9.275   3.869   3.665
 6809SOL    HW131106   9.210   3.882   3.590
 6809SOL    HW231107   9.295   3.957   3.707
 6810SOL     OW31108   7.471   9.576   1.438
 6810SOL    HW131109   7.565   9.600   1.414
 6810SOL    HW231110   7.456   9.478   1.420
 6811SOL     OW31111   9.047   9.298   0.960
 6811SOL    HW131112   9.103   9.379   0.942
 6811SOL    HW231113   9.107   9.219   0.973
 6812SOL     OW31114   4.021   7.342   3.584
 6812SOL    HW131115   3.999   7.261   3.530
 6812SOL    HW231116   3.995   7.327   3.679
 6813SOL     OW31117   2.520   8.567   0.242
 6813SOL    HW131118   2.578   8.581   0.162
 6813SOL    HW231119   2.425   8.588   0.218
 6814SOL     OW31120   0.215   3.613   3.666
 6814SOL    HW131121   0.145   3.618   3.736
 6814SOL    HW231122   0.174   3.585   3.579
 6815SOL     OW31123   3.208   8.493   2.500
 6815SOL    HW131124   3.292   8.488   2.554
 6815SOL    HW231125   3.172   8.400   2.487
 6816SOL     OW31126   6.415   1.366   4.047
 6816SOL    HW131127   6.456   1.357   4.138
 6816SOL    HW231128   6.400   1.275   4.009
 6817SOL     OW31129   8.392   1.456   1.950
 6817SOL    HW131130   8.446   1.400   2.014
 6817SOL    HW231131   8.429   1.548   1.947
 6818SOL     OW31132   0.430   3.653   2.049
 6818SOL    HW131133   0.477   3.584   2.104
 6818SOL    HW231134   0.391   3.609   1.968
 6819SOL     OW31135   1.512   1.603   0.132
 6819SOL    HW131136   1.538   1.507   0.137
 6819SOL    HW231137   1.576   1.652   0.072
 6820SOL     OW31138   1.098   6.528   3.316
 6820SOL    HW131139   1.113   6.627   3.321
 6820SOL    HW231140   1.008   6.510   3.275
 6821SOL     OW31141   8.631   3.908   2.670
 6821SOL    HW131142   8.645   3.994   2.621
 6821SOL    HW231143   8.637   3.924   2.768
 6822SOL     OW31144   1.115   5.539   3.627
 6822SOL    HW131145   1.185   5.611   3.632
 6822SOL    HW231146   1.076   5.524   3.718
 6823SOL     OW31147   9.529   9.958   1.785
 6823SOL    HW131148   9.528   0.022   1.708
 6823SOL    HW231149   9.467   9.991   1.857
 6824SOL     OW31150   4.221   0.268   4.361
 6824SOL    HW131151   4.225   0.260   4.460
 6824SOL    HW231152   4.186   0.358   4.335
 6825SOL     OW31153   7.955   3.937   0.216
 6825SOL    HW131154   7.939   3.842   0.188
 6825SOL    HW231155   7.881   3.995   0.183
 6826SOL     OW31156   1.328   9.988   2.585
 6826SOL    HW131157   1.349   9.994   2.487
 6826SOL    HW231158   1.231   0.005   2.599
 6827SOL     OW31159   4.890   9.122   2.113
 6827SOL    HW131160   4.801   9.101   2.072
 6827SOL    HW231161   4.962   9.110   2.045
 6828SOL     OW31162   0.193   6.132   0.143
 6828SOL    HW131163   0.123   6.137   0.214
 6828SOL    HW231164   0.237   6.221   0.132
 6829SOL     OW31165   0.905   9.428   3.371
 6829SOL    HW131166   0.849   9.426   3.453
 6829SOL    HW231167   0.853   9.393   3.294
 6830SOL     OW31168   8.042   9.493   3.793
 6830SOL    HW131169   8.120   9.533   3.745
 6830SOL    HW231170   7.959   9.506   3.739
 6831SOL     OW31171   2.058   2.826   1.043
 6831SOL    HW131172   1.978   2.766   1.030
 6831SOL    HW231173   2.027   2.920   1.054
 6832SOL     OW31174   9.474   5.509   0.659
 6832SOL    HW131175   9.434   5.595   0.627
 6832SOL    HW231176   9.513   5.459   0.582
 6833SOL     OW31177   2.864   8.523   1.208
 6833SOL    HW131178   2.888   8.612   1.170
 6833SOL    HW231179   2.865   8.527   1.308
 6834SOL     OW31180   8.190   6.682   3.350
 6834SOL    HW131181   8.130   6.604   3.367
 6834SOL    HW231182   8.268   6.678   3.413
 6835SOL     OW31183   4.078   9.707   3.122
 6835SOL    HW131184   4.116   9.614   3.118
 6835SOL    HW231185   4.041   9.732   3.032
 6836SOL     OW31186   9.293   6.566   3.452
 6836SOL    HW131187   9.392   6.569   3.443
 6836SOL    HW231188   9.266   6.612   3.537
 6837SOL     OW31189   5.087   2.251   2.991
 6837SOL    HW131190   5.040   2.326   3.038
 6837SOL    HW231191   5.172   2.231   3.040
 6838SOL     OW31192   0.090   3.053   0.676
 6838SOL    HW131193   0.012   3.089   0.727
 6838SOL    HW231194   0.085   3.085   0.581
 6839SOL     OW31195   9.089   0.094   1.907
 6839SOL    HW131196   9.070   0.182   1.865
 6839SOL    HW231197   9.186   0.087   1.929
 6840SOL     OW31198   3.168   3.706   2.586
 6840SOL    HW131199   3.173   3.679   2.490
 6840SOL    HW231200   3.191   3.628   2.644
 6841SOL     OW31201   8.736   7.399   0.206
 6841SOL    HW131202   8.681   7.454   0.143
 6841SOL    HW231203   8.795   7.459   0.260
 6842SOL     OW31204   0.934   1.825   1.122
 6842SOL    HW131205   1.010   1.820   1.057
 6842SOL    HW231206   0.864   1.888   1.087
 6843SOL     OW31207   5.910   8.868   4.214
 6843SOL    HW131208   5.991   8.913   4.177
 6843SOL    HW231209   5.846   8.847   4.139
 6844SOL     OW31210   1.615   7.523   3.773
 6844SOL    HW131211   1.648   7.432   3.800
 6844SOL    HW231212   1.639   7.541   3.678
 6845SOL     OW31213   2.082   4.570   2.438
 6845SOL    HW131214   2.011   4.632   2.403
 6845SOL    HW231215   2.113   4.602   2.527
 6846SOL     OW31216   8.784   2.084   0.515
 6846SOL    HW131217   8.721   2.007   0.504
 6846SOL    HW231218   8.745   2.150   0.580
 6847SOL     OW31219   1.155   1.963   1.543
 6847SOL    HW131220   1.127   1.876   1.584
 6847SOL    HW231221   1.087   2.033   1.564
 6848SOL     OW31222   9.015   3.285   3.956
 6848SOL    HW131223   9.056   3.198   3.982
 6848SOL    HW231224   8.964   3.274   3.871
 6849SOL     OW31225   2.113   5.427   0.106
 6849SOL    HW131226   2.104   5.492   0.031
 6849SOL    HW231227   2.209   5.403   0.118
 6850SOL     OW31228   3.439   9.671   4.274
 6850SOL    HW131229   3.370   9.632   4.213
 6850SOL    HW231230   3.412   9.657   4.369
 6851SOL     OW31231   4.114   0.838   0.228
 6851SOL    HW131232   4.186   0.833   0.297
 6851SOL    HW231233   4.079   0.745   0.210
 6852SOL     OW31234   1.716   1.965   1.802
 6852SOL    HW131235   1.772   2.033   1.755
 6852SOL    HW231236   1.739   1.873   1.769
 6853SOL     OW31237   1.266   7.728   3.867
 6853SOL    HW131238   1.230   7.636   3.851
 6853SOL    HW231239   1.251   7.784   3.785
 6854SOL     OW31240   1.646   7.427   1.674
 6854SOL    HW131241   1.704   7.495   1.630
 6854SOL    HW231242   1.597   7.470   1.750
 6855SOL     OW31243   9.293   2.619   4.141
 6855SOL    HW131244   9.280   2.563   4.059
 6855SOL    HW231245   9.311   2.714   4.114
 6856SOL     OW31246   3.090   9.447   0.336
 6856SOL    HW131247   3.125   9.539   0.320
 6856SOL    HW231248   3.119   9.387   0.261
 6857SOL     OW31249   4.734   6.377   2.534
 6857SOL    HW131250   4.692   6.449   2.590
 6857SOL    HW231251   4.831   6.398   2.522
 6858SOL     OW31252   1.506   9.654   1.547
 6858SOL    HW131253   1.593   9.605   1.552
 6858SOL    HW231254   1.523   9.752   1.557
 6859SOL     OW31255   1.369   2.652   0.353
 6859SOL    HW131256   1.408   2.584   0.416
 6859SOL    HW231257   1.402   2.743   0.380
 6860SOL     OW31258   0.823   7.293   1.695
 6860SOL    HW131259   0.735   7.249   1.715
 6860SOL    HW231260   0.808   7.389   1.670
 6861SOL     OW31261   2.488   9.804   3.587
 6861SOL    HW131262   2.573   9.757   3.611
 6861SOL    HW231263   2.410   9.744   3.604
 6862SOL     OW31264   3.682   7.787   4.218
 6862SOL    HW131265   3.587   7.760   4.234
 6862SOL    HW231266   3.740   7.750   4.290
 6863SOL     OW31267   1.170   3.563   3.994
 6863SOL    HW131268   1.146   3.659   4.007
 6863SOL    HW231269   1.267   3.549   4.012
 6864SOL     OW31270   8.634   4.733   1.128
 6864SOL    HW131271   8.669   4.785   1.050
 6864SOL    HW231272   8.547   4.690   1.103
 6865SOL     OW31273   8.393   3.433   4.020
 6865SOL    HW131274   8.423   3.518   4.066
 6865SOL    HW231275   8.392   3.359   4.087
 6866SOL     OW31276   9.783   4.794   0.052
 6866SOL    HW131277   9.815   4.853   5.612
 6866SOL    HW231278   9.739   4.850   0.123
 6867SOL     OW31279   6.117   9.427   1.639
 6867SOL    HW131280   6.033   9.408   1.589
 6867SOL    HW231281   6.186   9.461   1.576
 6868SOL     OW31282   2.524   0.350   3.247
 6868SOL    HW131283   2.455   0.285   3.279
 6868SOL    HW231284   2.607   0.301   3.220
 6869SOL     OW31285   0.355   8.446   0.365
 6869SOL    HW131286   0.443   8.401   0.382
 6869SOL    HW231287   0.341   8.518   0.433
 6870SOL     OW31288   3.815   3.723   1.107
 6870SOL    HW131289   3.830   3.664   1.028
 6870SOL    HW231290   3.763   3.673   1.177
 6871SOL     OW31291   3.589   3.020   1.872
 6871SOL    HW131292   3.640   2.942   1.836
 6871SOL    HW231293   3.576   3.088   1.799
 6872SOL     OW31294   8.221   3.926   3.032
 6872SOL    HW131295   8.260   3.978   3.108
 6872SOL    HW231296   8.144   3.871   3.065
 6873SOL     OW31297   0.842   7.168   2.307
 6873SOL    HW131298   0.907   7.104   2.346
 6873SOL    HW231299   0.864   7.261   2.337
 6874SOL     OW31300   3.895   8.920   0.742
 6874SOL    HW131301   3.953   8.852   0.697
 6874SOL    HW231302   3.930   9.012   0.724
 6875SOL     OW31303   8.475   3.873   4.283
 6875SOL    HW131304   8.553   3.866   4.344
 6875SOL    HW231305   8.440   3.967   4.282
 6876SOL     OW31306   5.005   1.071   2.399
 6876SOL    HW131307   5.055   0.994   2.358
 6876SOL    HW231308   5.049   1.157   2.371
 6877SOL     OW31309   4.718   7.088   3.605
 6877SOL    HW131310   4.666   7.009   3.636
 6877SOL    HW231311   4.799   7.058   3.555
 6878SOL     OW31312   3.484   5.844   2.477
 6878SOL    HW131313   3.502   5.746   2.486
 6878SOL    HW231314   3.560   5.896   2.517
 6879SOL     OW31315   0.947   0.661   0.808
 6879SOL    HW131316   0.928   0.565   0.826
 6879SOL    HW231317   0.907   0.688   0.720
 6880SOL     OW31318   8.000   1.713   1.786
 6880SOL    HW131319   8.019   1.715   1.687
 6880SOL    HW231320   8.054   1.641   1.828
 6881SOL     OW31321   9.064   9.711   2.820
 6881SOL    HW131322   9.143   9.695   2.761
 6881SOL    HW231323   8.981   9.676   2.775
 6882SOL     OW31324   3.573   2.540   0.872
 6882SOL    HW131325   3.483   2.514   0.906
 6882SOL    HW231326   3.562   2.591   0.786
 6883SOL     OW31327   8.490   1.896   0.764
 6883SOL    HW131328   8.540   1.819   0.804
 6883SOL    HW231329   8.394   1.891   0.792
 6884SOL     OW31330   1.212   0.372   1.764
 6884SOL    HW131331   1.237   0.295   1.705
 6884SOL    HW231332   1.118   0.400   1.745
 6885SOL     OW31333   9.589   4.032   1.012
 6885SOL    HW131334   9.624   3.945   0.977
 6885SOL    HW231335   9.493   4.042   0.986
 6886SOL     OW31336   4.695   0.010   2.790
 6886SOL    HW131337   4.792   0.030   2.778
 6886SOL    HW231338   4.675   9.997   2.887
 6887SOL     OW31339   5.477   7.505   1.871
 6887SOL    HW131340   5.521   7.580   1.920
 6887SOL    HW231341   5.522   7.419   1.895
 6888SOL     OW31342   2.962   4.301   2.752
 6888SOL    HW131343   2.996   4.391   2.724
 6888SOL    HW231344   3.038   4.237   2.757
 6889SOL     OW31345   5.282   8.447   2.511
 6889SOL    HW131346   5.189   8.439   2.547
 6889SOL    HW231347   5.287   8.401   2.422
 6890SOL     OW31348   3.777   2.762   3.269
 6890SOL    HW131349   3.873   2.747   3.246
 6890SOL    HW231350   3.767   2.849   3.315
 6891SOL     OW31351   9.230   3.920   1.324
 6891SOL    HW131352   9.272   3.832   1.300
 6891SOL    HW231353   9.297   3.976   1.374
 6892SOL     OW31354   9.590   0.284   3.666
 6892SOL    HW131355   9.665   0.258   3.605
 6892SOL    HW231356   9.503   0.260   3.624
 6893SOL     OW31357   4.089   9.967   3.574
 6893SOL    HW131358   3.993   9.987   3.593
 6893SOL    HW231359   4.118   0.016   3.492
 6894SOL     OW31360   6.112   8.612   3.138
 6894SOL    HW131361   6.109   8.543   3.065
 6894SOL    HW231362   6.063   8.577   3.218
 6895SOL     OW31363   9.059   7.513   3.323
 6895SOL    HW131364   9.058   7.463   3.236
 6895SOL    HW231365   9.131   7.476   3.382
 6896SOL     OW31366   8.914   5.678   1.376
 6896SOL    HW131367   8.934   5.663   1.279
 6896SOL    HW231368   8.996   5.712   1.422
 6897SOL     OW31369   2.016   2.091   2.050
 6897SOL    HW131370   1.931   2.040   2.064
 6897SOL    HW231371   2.020   2.168   2.113
 6898SOL     OW31372   8.613   6.050   0.593
 6898SOL    HW131373   8.601   6.089   0.684
 6898SOL    HW231374   8.597   6.120   0.524
 6899SOL     OW31375   2.351   4.739   0.720
 6899SOL    HW131376   2.407   4.822   0.726
 6899SOL    HW231377   2.255   4.764   0.725
 6900SOL     OW31378   6.573   9.092   3.433
 6900SOL    HW131379   6.544   8.996   3.429
 6900SOL    HW231380   6.601   9.122   3.342
 6901SOL     OW31381   2.974   5.686   0.188
 6901SOL    HW131382   3.039   5.742   0.135
 6901SOL    HW231383   2.903   5.652   0.127
 6902SOL     OW31384   1.076   6.181   4.323
 6902SOL    HW131385   1.008   6.248   4.356
 6902SOL    HW231386   1.117   6.214   4.238
 6903SOL     OW31387   0.574   5.972   2.684
 6903SOL    HW131388   0.624   5.986   2.598
 6903SOL    HW231389   0.608   5.889   2.729
 6904SOL     OW31390   6.139   8.603   1.310
 6904SOL    HW131391   6.154   8.515   1.356
 6904SOL    HW231392   6.066   8.652   1.358
 6905SOL     OW31393   8.915   6.047   3.164
 6905SOL    HW131394   8.842   6.000   3.214
 6905SOL    HW231395   8.998   6.048   3.220
 6906SOL     OW31396   4.178   2.180   3.170
 6906SOL    HW131397   4.184   2.083   3.192
 6906SOL    HW231398   4.097   2.197   3.115
 6907SOL     OW31399   3.773   3.113   2.056
 6907SOL    HW131400   3.729   3.139   2.142
 6907SOL    HW231401   3.705   3.075   1.994
 6908SOL     OW31402   3.167   1.399   2.946
 6908SOL    HW131403   3.200   1.326   2.887
 6908SOL    HW231404   3.245   1.445   2.990
 6909SOL     OW31405   1.823   7.179   0.865
 6909SOL    HW131406   1.783   7.176   0.773
 6909SOL    HW231407   1.923   7.179   0.859
 6910SOL     OW31408   3.234   3.980   1.015
 6910SOL    HW131409   3.309   4.024   1.064
 6910SOL    HW231410   3.172   3.937   1.080
 6911SOL     OW31411   1.091   8.801   0.684
 6911SOL    HW131412   1.171   8.803   0.744
 6911SOL    HW231413   1.121   8.806   0.589
 6912SOL     OW31414   2.846   0.016   0.146
 6912SOL    HW131415   2.823   9.923   0.117
 6912SOL    HW231416   2.848   0.019   0.246
 6913SOL     OW31417   1.105   6.043   2.014
 6913SOL    HW131418   1.126   6.132   2.056
 6913SOL    HW231419   1.191   5.994   1.997
 6914SOL     OW31420   9.436   7.845   3.222
 6914SOL    HW131421   9.465   7.934   3.186
 6914SOL    HW231422   9.510   7.805   3.276
 6915SOL     OW31423   4.721   1.233   2.225
 6915SOL    HW131424   4.735   1.163   2.155
 6915SOL    HW231425   4.729   1.191   2.316
 6916SOL     OW31426   4.909   9.288   3.097
 6916SOL    HW131427   4.900   9.321   3.003
 6916SOL    HW231428   4.818   9.274   3.136
 6917SOL     OW31429   2.733   3.985   3.145
 6917SOL    HW131430   2.771   3.898   3.176
 6917SOL    HW231431   2.685   3.972   3.058
 6918SOL     OW31432   2.110   7.327   2.743
 6918SOL    HW131433   2.092   7.255   2.676
 6918SOL    HW231434   2.170   7.396   2.703
 6919SOL     OW31435   0.246   6.457   1.099
 6919SOL    HW131436   0.211   6.402   1.175
 6919SOL    HW231437   0.209   6.423   1.013
 6920SOL     OW31438   4.116   3.930   1.464
 6920SOL    HW131439   4.137   3.839   1.498
 6920SOL    HW231440   4.069   3.923   1.376
 6921SOL     OW31441   9.021   2.148   4.095
 6921SOL    HW131442   8.946   2.083   4.085
 6921SOL    HW231443   9.103   2.112   4.053
 6922SOL     OW31444   9.780   0.246   1.205
 6922SOL    HW131445   9.832   0.263   1.289
 6922SOL    HW231446   9.774   0.330   1.152
 6923SOL     OW31447   4.286   8.366   3.637
 6923SOL    HW131448   4.329   8.446   3.595
 6923SOL    HW231449   4.213   8.332   3.577
 6924SOL     OW31450   4.624   3.214   3.667
 6924SOL    HW131451   4.702   3.266   3.632
 6924SOL    HW231452   4.567   3.184   3.590
 6925SOL     OW31453   1.413   9.147   4.305
 6925SOL    HW131454   1.325   9.188   4.329
 6925SOL    HW231455   1.450   9.101   4.385
 6926SOL     OW31456   1.241   5.093   2.616
 6926SOL    HW131457   1.222   5.024   2.547
 6926SOL    HW231458   1.317   5.151   2.585
 6927SOL     OW31459   2.420   0.483   2.349
 6927SOL    HW131460   2.392   0.571   2.309
 6927SOL    HW231461   2.469   0.500   2.435
 6928SOL     OW31462   7.289   9.039   1.781
 6928SOL    HW131463   7.196   9.069   1.801
 6928SOL    HW231464   7.292   8.998   1.690
 6929SOL     OW31465   7.972   5.533   3.958
 6929SOL    HW131466   7.958   5.522   4.057
 6929SOL    HW231467   8.008   5.448   3.920
 6930SOL     OW31468   4.600   0.491   2.593
 6930SOL    HW131469   4.535   0.560   2.622
 6930SOL    HW231470   4.582   0.405   2.642
 6931SOL     OW31471   0.365   2.921   2.505
 6931SOL    HW131472   0.452   2.923   2.553
 6931SOL    HW231473   0.367   2.848   2.436
 6932SOL     OW31474   8.058   1.576   3.784
 6932SOL    HW131475   7.980   1.518   3.760
 6932SOL    HW231476   8.077   1.639   3.709
 6933SOL     OW31477   1.176   8.733   3.107
 6933SOL    HW131478   1.174   8.808   3.041
 6933SOL    HW231479   1.083   8.706   3.129
 6934SOL     OW31480   4.106   9.843   0.424
 6934SOL    HW131481   4.187   9.876   0.472
 6934SOL    HW231482   4.042   9.919   0.411
 6935SOL     OW31483   3.779   7.837   2.838
 6935SOL    HW131484   3.836   7.787   2.772
 6935SOL    HW231485   3.837   7.876   2.909
 6936SOL     OW31486   8.194   1.242   0.823
 6936SOL    HW131487   8.128   1.258   0.750
 6936SOL    HW231488   8.280   1.211   0.783
 6937SOL     OW31489   2.532   4.479   2.315
 6937SOL    HW131490   2.518   4.473   2.414
 6937SOL    HW231491   2.600   4.411   2.286
 6938SOL     OW31492   8.089   2.364   0.812
 6938SOL    HW131493   8.188   2.355   0.820
 6938SOL    HW231494   8.056   2.435   0.874
 6939SOL     OW31495   3.254   5.305   2.867
 6939SOL    HW131496   3.329   5.365   2.896
 6939SOL    HW231497   3.206   5.348   2.790
 6940SOL     OW31498   6.047   7.540   3.000
 6940SOL    HW131499   6.136   7.557   3.042
 6940SOL    HW231500   6.012   7.452   3.030
 6941SOL     OW31501   7.922   9.280   0.344
 6941SOL    HW131502   8.020   9.265   0.329
 6941SOL    HW231503   7.903   9.378   0.338
 6942SOL     OW31504   5.758   9.676   4.089
 6942SOL    HW131505   5.662   9.702   4.079
 6942SOL    HW231506   5.801   9.670   3.999
 6943SOL     OW31507   0.582   6.730   1.372
 6943SOL    HW131508   0.560   6.813   1.423
 6943SOL    HW231509   0.516   6.719   1.297
 6944SOL     OW31510   9.416   4.023   0.206
 6944SOL    HW131511   9.340   4.002   0.145
 6944SOL    HW231512   9.412   4.119   0.234
 6945SOL     OW31513   1.428   8.664   3.795
 6945SOL    HW131514   1.440   8.763   3.797
 6945SOL    HW231515   1.376   8.635   3.876
 6946SOL     OW31516   0.522   6.455   2.310
 6946SOL    HW131517   0.484   6.471   2.401
 6946SOL    HW231518   0.620   6.475   2.311
 6947SOL     OW31519   1.756   2.906   1.102
 6947SOL    HW131520   1.772   2.819   1.054
 6947SOL    HW231521   1.793   2.900   1.194
 6948SOL     OW31522   9.455   5.809   2.758
 6948SOL    HW131523   9.447   5.902   2.792
 6948SOL    HW231524   9.422   5.804   2.664
 6949SOL     OW31525   3.346   7.405   1.474
 6949SOL    HW131526   3.404   7.486   1.462
 6949SOL    HW231527   3.348   7.377   1.570
 6950SOL     OW31528   0.721   2.865   1.840
 6950SOL    HW131529   0.700   2.832   1.748
 6950SOL    HW231530   0.806   2.822   1.872
 6951SOL     OW31531   3.779   8.562   3.568
 6951SOL    HW131532   3.811   8.523   3.654
 6951SOL    HW231533   3.730   8.493   3.516
 6952SOL     OW31534   8.387   9.229   1.925
 6952SOL    HW131535   8.290   9.248   1.933
 6952SOL    HW231536   8.421   9.263   1.836
 6953SOL     OW31537   1.908   9.936   2.230
 6953SOL    HW131538   1.843   9.862   2.218
 6953SOL    HW231539   1.898   9.976   2.321
 6954SOL     OW31540   4.207   6.675   1.770
 6954SOL    HW131541   4.159   6.735   1.834
 6954SOL    HW231542   4.299   6.711   1.754
 6955SOL     OW31543   2.792   3.563   4.074
 6955SOL    HW131544   2.860   3.530   4.140
 6955SOL    HW231545   2.788   3.663   4.077
 6956SOL     OW31546   8.202   5.282   1.758
 6956SOL    HW131547   8.280   5.226   1.733
 6956SOL    HW231548   8.188   5.279   1.857
 6957SOL     OW31549   0.995   1.570   2.297
 6957SOL    HW131550   1.094   1.581   2.310
 6957SOL    HW231551   0.962   1.640   2.235
 6958SOL     OW31552   0.958   9.455   0.265
 6958SOL    HW131553   1.046   9.500   0.248
 6958SOL    HW231554   0.974   9.359   0.289
 6959SOL     OW31555   8.266   2.312   1.270
 6959SOL    HW131556   8.306   2.220   1.268
 6959SOL    HW231557   8.217   2.325   1.356
 6960SOL     OW31558   9.723   6.372   0.323
 6960SOL    HW131559   9.794   6.385   0.254
 6960SOL    HW231560   9.642   6.332   0.281
 6961SOL     OW31561   0.243   0.201   3.481
 6961SOL    HW131562   0.184   0.208   3.400
 6961SOL    HW231563   0.296   0.285   3.491
 6962SOL     OW31564   4.090   7.301   2.393
 6962SOL    HW131565   4.041   7.280   2.478
 6962SOL    HW231566   4.025   7.301   2.317
 6963SOL     OW31567   4.646   1.856   4.091
 6963SOL    HW131568   4.618   1.950   4.111
 6963SOL    HW231569   4.588   1.793   4.144
 6964SOL     OW31570   9.858   6.375   1.412
 6964SOL    HW131571   9.784   6.387   1.346
 6964SOL    HW231572   9.850   6.444   1.484
 6965SOL     OW31573   2.799   7.542   3.607
 6965SOL    HW131574   2.705   7.536   3.575
 6965SOL    HW231575   2.800   7.554   3.706
 6966SOL     OW31576   0.055   0.641   4.125
 6966SOL    HW131577   0.100   0.592   4.200
 6966SOL    HW231578   0.118   0.652   4.049
 6967SOL     OW31579   7.947   7.322   1.875
 6967SOL    HW131580   8.031   7.365   1.842
 6967SOL    HW231581   7.920   7.250   1.811
 6968SOL     OW31582   3.141   4.515   2.433
 6968SOL    HW131583   3.240   4.530   2.428
 6968SOL    HW231584   3.111   4.523   2.528
 6969SOL     OW31585   2.759   6.945   4.122
 6969SOL    HW131586   2.660   6.935   4.131
 6969SOL    HW231587   2.793   6.877   4.057
 6970SOL     OW31588   5.699   8.623   2.139
 6970SOL    HW131589   5.697   8.533   2.096
 6970SOL    HW231590   5.685   8.693   2.070
 6971SOL     OW31591   1.917   8.403   3.978
 6971SOL    HW131592   1.901   8.434   3.884
 6971SOL    HW231593   1.854   8.329   3.999
 6972SOL     OW31594   2.527   9.501   2.766
 6972SOL    HW131595   2.505   9.587   2.720
 6972SOL    HW231596   2.472   9.428   2.728
 6973SOL     OW31597   1.276   4.804   0.730
 6973SOL    HW131598   1.343   4.826   0.801
 6973SOL    HW231599   1.187   4.787   0.773
 6974SOL     OW31600   5.776   7.956   2.508
 6974SOL    HW131601   5.741   8.042   2.545
 6974SOL    HW231602   5.834   7.975   2.428
 6975SOL     OW31603   5.708   9.023   2.588
 6975SOL    HW131604   5.680   8.927   2.597
 6975SOL    HW231605   5.700   9.069   2.677
 6976SOL     OW31606   4.264   7.531   4.246
 6976SOL    HW131607   4.352   7.490   4.224
 6976SOL    HW231608   4.254   7.617   4.197
 6977SOL     OW31609   0.265   7.732   2.579
 6977SOL    HW131610   0.343   7.672   2.598
 6977SOL    HW231611   0.180   7.681   2.591
 6978SOL     OW31612   5.931   9.093   3.963
 6978SOL    HW131613   5.894   9.182   3.988
 6978SOL    HW231614   6.006   9.070   4.025
 6979SOL     OW31615   7.529   2.690   2.258
 6979SOL    HW131616   7.541   2.774   2.205
 6979SOL    HW231617   7.608   2.630   2.244
 6980SOL     OW31618   3.585   3.761   3.602
 6980SOL    HW131619   3.618   3.749   3.695
 6980SOL    HW231620   3.486   3.774   3.602
 6981SOL     OW31621   2.492   6.924   0.979
 6981SOL    HW131622   2.396   6.948   0.961
 6981SOL    HW231623   2.552   6.986   0.929
 6982SOL     OW31624   1.747   3.603   1.936
 6982SOL    HW131625   1.716   3.588   1.842
 6982SOL    HW231626   1.688   3.552   1.998
 6983SOL     OW31627   3.613   7.718   1.078
 6983SOL    HW131628   3.520   7.680   1.075
 6983SOL    HW231629   3.679   7.643   1.074
 6984SOL     OW31630   0.994   0.151   2.338
 6984SOL    HW131631   0.990   0.077   2.271
 6984SOL    HW231632   1.023   0.115   2.427
 6985SOL     OW31633   8.530   1.783   3.417
 6985SOL    HW131634   8.462   1.756   3.348
 6985SOL    HW231635   8.505   1.743   3.505
 6986SOL     OW31636   4.188   3.660   1.524
 6986SOL    HW131637   4.106   3.671   1.579
 6986SOL    HW231638   4.230   3.571   1.544
 6987SOL     OW31639   0.228   5.779   0.968
 6987SOL    HW131640   0.301   5.810   0.907
 6987SOL    HW231641   0.146   5.834   0.952
 6988SOL     OW31642   2.702   5.392   0.899
 6988SOL    HW131643   2.662   5.337   0.974
 6988SOL    HW231644   2.718   5.333   0.820
 6989SOL     OW31645   7.420   4.027   1.041
 6989SOL    HW131646   7.382   3.951   1.093
 6989SOL    HW231647   7.514   4.005   1.014
 6990SOL     OW31648   3.492   2.708   2.272
 6990SOL    HW131649   3.574   2.703   2.328
 6990SOL    HW231650   3.472   2.803   2.250
 6991SOL     OW31651   9.416   6.101   2.716
 6991SOL    HW131652   9.324   6.105   2.678
 6991SOL    HW231653   9.482   6.136   2.650
 6992SOL     OW31654   3.973   5.219   0.934
 6992SOL    HW131655   4.067   5.211   0.966
 6992SOL    HW231656   3.911   5.213   1.012
 6993SOL     OW31657   1.111   3.716   0.239
 6993SOL    HW131658   1.201   3.677   0.261
 6993SOL    HW231659   1.056   3.647   0.193
 6994SOL     OW31660   9.699   4.542   0.245
 6994SOL    HW131661   9.627   4.594   0.198
 6994SOL    HW231662   9.780   4.538   0.188
 6995SOL     OW31663   3.072   5.251   3.331
 6995SOL    HW131664   3.008   5.308   3.382
 6995SOL    HW231665   3.061   5.269   3.233
 6996SOL     OW31666   3.228   7.423   2.974
 6996SOL    HW131667   3.140   7.464   2.950
 6996SOL    HW231668   3.260   7.365   2.899
 6997SOL     OW31669   3.706   9.619   1.884
 6997SOL    HW131670   3.788   9.642   1.937
 6997SOL    HW231671   3.660   9.704   1.856
 6998SOL     OW31672   8.793   9.853   3.741
 6998SOL    HW131673   8.834   9.852   3.832
 6998SOL    HW231674   8.694   9.853   3.748
 6999SOL     OW31675   5.998   7.562   3.321
 6999SOL    HW131676   5.990   7.613   3.236
 6999SOL    HW231677   6.088   7.578   3.362
 7000SOL     OW31678   3.648   0.456   3.077
 7000SOL    HW131679   3.718   0.521   3.048
 7000SOL    HW231680   3.672   0.418   3.166
 7001SOL     OW31681   1.517   9.749   3.050
 7001SOL    HW131682   1.436   9.729   2.994
 7001SOL    HW231683   1.550   9.664   3.092
 7002SOL     OW31684   8.151   4.049   0.874
 7002SOL    HW131685   8.163   4.135   0.823
 7002SOL    HW231686   8.097   4.067   0.956
 7003SOL     OW31687   7.850   0.487   3.071
 7003SOL    HW131688   7.815   0.574   3.036
 7003SOL    HW231689   7.778   0.418   3.063
 7004SOL     OW31690   2.225   4.605   0.328
 7004SOL    HW131691   2.248   4.535   0.261
 7004SOL    HW231692   2.250   4.695   0.292
 7005SOL     OW31693   0.154   2.866   4.213
 7005SOL    HW131694   0.084   2.914   4.267
 7005SOL    HW231695   0.237   2.922   4.210
 7006SOL     OW31696   0.994   5.824   4.055
 7006SOL    HW131697   0.980   5.853   4.150
 7006SOL    HW231698   0.909   5.784   4.020
 7007SOL     OW31699   8.540   5.378   1.790
 7007SOL    HW131700   8.628   5.397   1.746
 7007SOL    HW231701   8.499   5.297   1.748
 7008SOL     OW31702   2.275   4.457   1.144
 7008SOL    HW131703   2.188   4.495   1.173
 7008SOL    HW231704   2.317   4.518   1.077
 7009SOL     OW31705   0.250   9.811   1.813
 7009SOL    HW131706   0.259   9.739   1.743
 7009SOL    HW231707   0.336   9.861   1.819
 7010SOL     OW31708   5.637   8.741   2.581
 7010SOL    HW131709   5.554   8.727   2.527
 7010SOL    HW231710   5.634   8.683   2.663
 7011SOL     OW31711   3.738   4.435   1.863
 7011SOL    HW131712   3.768   4.355   1.913
 7011SOL    HW231713   3.742   4.516   1.922
 7012SOL     OW31714   3.163   6.009   4.395
 7012SOL    HW131715   3.250   5.985   4.438
 7012SOL    HW231716   3.118   5.925   4.362
 7013SOL     OW31717   5.782   0.214   0.901
 7013SOL    HW131718   5.865   0.259   0.934
 7013SOL    HW231719   5.779   0.219   0.802
 7014SOL     OW31720   1.989   5.595   2.258
 7014SOL    HW131721   1.921   5.553   2.320
 7014SOL    HW231722   1.941   5.649   2.189
 7015SOL     OW31723   0.041   0.956   2.828
 7015SOL    HW131724   0.114   1.024   2.836
 7015SOL    HW231725   9.993   0.969   2.741
 7016SOL     OW31726   3.928   4.758   1.356
 7016SOL    HW131727   3.943   4.846   1.311
 7016SOL    HW231728   3.836   4.726   1.337
 7017SOL     OW31729   1.196   5.148   0.380
 7017SOL    HW131730   1.242   5.087   0.444
 7017SOL    HW231731   1.205   5.112   0.287
 7018SOL     OW31732   8.019   1.710   1.505
 7018SOL    HW131733   8.053   1.685   1.414
 7018SOL    HW231734   7.935   1.660   1.523
 7019SOL     OW31735   0.110   5.255   2.283
 7019SOL    HW131736   0.125   5.224   2.377
 7019SOL    HW231737   0.011   5.260   2.265
 7020SOL     OW31738   2.539   8.665   1.134
 7020SOL    HW131739   2.543   8.592   1.066
 7020SOL    HW231740   2.579   8.748   1.096
 7021SOL     OW31741   6.359   1.313   2.332
 7021SOL    HW131742   6.390   1.252   2.259
 7021SOL    HW231743   6.260   1.305   2.343
 7022SOL     OW31744   0.941   9.478   1.412
 7022SOL    HW131745   0.982   9.389   1.397
 7022SOL    HW231746   0.919   9.489   1.509
 7023SOL     OW31747   2.460   4.097   4.021
 7023SOL    HW131748   2.440   4.000   4.012
 7023SOL    HW231749   2.375   4.149   4.024
 7024SOL     OW31750   6.978   0.847   3.938
 7024SOL    HW131751   6.895   0.846   3.883
 7024SOL    HW231752   7.047   0.789   3.895
 7025SOL     OW31753   4.072   7.757   3.486
 7025SOL    HW131754   4.111   7.688   3.547
 7025SOL    HW231755   4.062   7.844   3.535
 7026SOL     OW31756   4.796   6.703   2.683
 7026SOL    HW131757   4.714   6.649   2.702
 7026SOL    HW231758   4.772   6.785   2.632
 7027SOL     OW31759   7.587   5.804   3.492
 7027SOL    HW131760   7.588   5.705   3.502
 7027SOL    HW231761   7.661   5.832   3.430
 7028SOL     OW31762   9.657   4.774   3.104
 7028SOL    HW131763   9.620   4.728   3.024
 7028SOL    HW231764   9.668   4.872   3.084
 7029SOL     OW31765   8.731   9.822   0.030
 7029SOL    HW131766   8.676   9.904   0.047
 7029SOL    HW231767   8.822   9.850   5.633
 7030SOL     OW31768   0.177   1.190   0.704
 7030SOL    HW131769   0.165   1.248   0.784
 7030SOL    HW231770   0.216   1.244   0.629
 7031SOL     OW31771   4.101   3.491   2.353
 7031SOL    HW131772   4.052   3.572   2.384
 7031SOL    HW231773   4.040   3.411   2.359
 7032SOL     OW31774   7.039   9.746   3.888
 7032SOL    HW131775   7.067   9.789   3.802
 7032SOL    HW231776   7.121   9.725   3.942
 7033SOL     OW31777   5.336   7.680   3.270
 7033SOL    HW131778   5.300   7.675   3.177
 7033SOL    HW231779   5.436   7.673   3.268
 7034SOL     OW31780   0.732   0.728   2.689
 7034SOL    HW131781   0.784   0.813   2.690
 7034SOL    HW231782   0.735   0.687   2.598
 7035SOL     OW31783   8.078   5.524   2.585
 7035SOL    HW131784   8.058   5.622   2.583
 7035SOL    HW231785   8.155   5.505   2.523
 7036SOL     OW31786   6.472   0.473   4.197
 7036SOL    HW131787   6.374   0.493   4.195
 7036SOL    HW231788   6.523   0.555   4.170
 7037SOL     OW31789   5.138   6.731   2.939
 7037SOL    HW131790   5.058   6.703   2.991
 7037SOL    HW231791   5.190   6.800   2.990
 7038SOL     OW31792   9.763   4.190   1.632
 7038SOL    HW131793   9.830   4.194   1.706
 7038SOL    HW231794   9.693   4.122   1.653
 7039SOL     OW31795   1.816   5.811   3.784
 7039SOL    HW131796   1.913   5.789   3.793
 7039SOL    HW231797   1.761   5.746   3.837
 7040SOL     OW31798   4.281   9.228   1.476
 7040SOL    HW131799   4.309   9.286   1.553
 7040SOL    HW231800   4.355   9.223   1.409
 7041SOL     OW31801   9.216   5.910   4.142
 7041SOL    HW131802   9.285   5.888   4.073
 7041SOL    HW231803   9.134   5.945   4.097
 7042SOL     OW31804   6.488   9.896   2.096
 7042SOL    HW131805   6.579   9.873   2.060
 7042SOL    HW231806   6.444   9.813   2.129
 7043SOL     OW31807   1.263   2.999   3.671
 7043SOL    HW131808   1.346   2.956   3.705
 7043SOL    HW231809   1.202   3.020   3.748
 7044SOL     OW31810   8.195   4.777   0.895
 7044SOL    HW131811   8.183   4.861   0.947
 7044SOL    HW231812   8.106   4.737   0.874
 7045SOL     OW31813   1.308   1.100   3.373
 7045SOL    HW131814   1.238   1.165   3.343
 7045SOL    HW231815   1.265   1.026   3.424
 7046SOL     OW31816   6.294   7.601   3.115
 7046SOL    HW131817   6.363   7.531   3.097
 7046SOL    HW231818   6.291   7.621   3.213
 7047SOL     OW31819   7.502   7.022   2.623
 7047SOL    HW131820   7.587   7.072   2.607
 7047SOL    HW231821   7.427   7.065   2.573
 7048SOL     OW31822   3.113   7.035   4.302
 7048SOL    HW131823   3.138   7.092   4.380
 7048SOL    HW231824   3.106   7.091   4.220
 7049SOL     OW31825   4.134   2.785   1.261
 7049SOL    HW131826   4.225   2.795   1.220
 7049SOL    HW231827   4.067   2.764   1.190
 7050SOL     OW31828   9.957   8.962   3.484
 7050SOL    HW131829   9.916   9.008   3.562
 7050SOL    HW231830   9.943   9.018   3.402
 7051SOL     OW31831   9.290   4.499   3.403
 7051SOL    HW131832   9.356   4.539   3.339
 7051SOL    HW231833   9.334   4.423   3.452
 7052SOL     OW31834   4.202   8.207   0.980
 7052SOL    HW131835   4.134   8.267   0.937
 7052SOL    HW231836   4.200   8.220   1.079
 7053SOL     OW31837   9.165   3.373   2.849
 7053SOL    HW131838   9.228   3.382   2.925
 7053SOL    HW231839   9.181   3.447   2.783
 7054SOL     OW31840   4.521   3.139   0.317
 7054SOL    HW131841   4.439   3.092   0.285
 7054SOL    HW231842   4.537   3.220   0.262
 7055SOL     OW31843   6.003   9.943   3.349
 7055SOL    HW131844   6.079   9.940   3.415
 7055SOL    HW231845   6.039   9.928   3.257
 7056SOL     OW31846   6.815   7.590   2.592
 7056SOL    HW131847   6.788   7.575   2.497
 7056SOL    HW231848   6.914   7.596   2.598
 7057SOL     OW31849   9.171   7.663   1.121
 7057SOL    HW131850   9.211   7.575   1.092
 7057SOL    HW231851   9.230   7.737   1.091
 7058SOL     OW31852   2.702   8.188   1.543
 7058SOL    HW131853   2.684   8.171   1.446
 7058SOL    HW231854   2.618   8.216   1.589
 7059SOL     OW31855   0.604   2.484   3.955
 7059SOL    HW131856   0.564   2.486   4.046
 7059SOL    HW231857   0.555   2.547   3.895
 7060SOL     OW31858   1.952   5.053   3.336
 7060SOL    HW131859   1.964   5.150   3.314
 7060SOL    HW231860   1.988   4.998   3.261
 7061SOL     OW31861   7.997   8.080   2.458
 7061SOL    HW131862   8.086   8.103   2.498
 7061SOL    HW231863   7.940   8.036   2.528
 7062SOL     OW31864   7.600   0.865   3.039
 7062SOL    HW131865   7.639   0.784   2.994
 7062SOL    HW231866   7.511   0.886   2.998
 7063SOL     OW31867   0.458   1.259   2.232
 7063SOL    HW131868   0.420   1.167   2.223
 7063SOL    HW231869   0.383   1.324   2.247
 7064SOL     OW31870   0.765   7.888   2.495
 7064SOL    HW131871   0.720   7.826   2.430
 7064SOL    HW231872   0.743   7.860   2.588
 7065SOL     OW31873   5.417   1.972   2.470
 7065SOL    HW131874   5.501   1.983   2.417
 7065SOL    HW231875   5.440   1.940   2.562
 7066SOL     OW31876   2.376   8.790   0.817
 7066SOL    HW131877   2.300   8.848   0.846
 7066SOL    HW231878   2.348   8.694   0.823
 7067SOL     OW31879   5.393   0.626   0.902
 7067SOL    HW131880   5.482   0.583   0.913
 7067SOL    HW231881   5.327   0.581   0.962
 7068SOL     OW31882   0.201   5.428   4.252
 7068SOL    HW131883   0.167   5.415   4.345
 7068SOL    HW231884   0.177   5.348   4.197
 7069SOL     OW31885   8.122   1.497   1.916
 7069SOL    HW131886   8.221   1.484   1.909
 7069SOL    HW231887   8.083   1.429   1.978
 7070SOL     OW31888   1.525   9.019   2.655
 7070SOL    HW131889   1.523   9.034   2.754
 7070SOL    HW231890   1.614   8.984   2.628
 7071SOL     OW31891   3.347   5.371   1.740
 7071SOL    HW131892   3.431   5.355   1.688
 7071SOL    HW231893   3.354   5.459   1.788
 7072SOL     OW31894   3.593   8.681   1.808
 7072SOL    HW131895   3.556   8.650   1.896
 7072SOL    HW231896   3.571   8.613   1.737
 7073SOL     OW31897   2.495   0.858   0.073
 7073SOL    HW131898   2.490   0.780   0.135
 7073SOL    HW231899   2.587   0.896   0.073
 7074SOL     OW31900   7.262   9.496   2.194
 7074SOL    HW131901   7.269   9.466   2.289
 7074SOL    HW231902   7.354   9.502   2.154
 7075SOL     OW31903   8.785   6.745   3.941
 7075SOL    HW131904   8.874   6.789   3.926
 7075SOL    HW231905   8.793   6.647   3.923
 7076SOL     OW31906   6.199   9.536   2.517
 7076SOL    HW131907   6.289   9.580   2.527
 7076SOL    HW231908   6.162   9.557   2.426
 7077SOL     OW31909   2.734   7.763   0.903
 7077SOL    HW131910   2.678   7.765   0.986
 7077SOL    HW231911   2.782   7.850   0.893
 7078SOL     OW31912   9.851   3.941   2.801
 7078SOL    HW131913   9.760   3.946   2.843
 7078SOL    HW231914   9.850   3.872   2.729
 7079SOL     OW31915   9.857   8.861   2.796
 7079SOL    HW131916   9.823   8.813   2.877
 7079SOL    HW231917   9.893   8.795   2.730
 7080SOL     OW31918   9.412   8.299   4.022
 7080SOL    HW131919   9.358   8.243   3.959
 7080SOL    HW231920   9.351   8.361   4.071
 7081SOL     OW31921   4.698   8.262   3.021
 7081SOL    HW131922   4.651   8.346   3.047
 7081SOL    HW231923   4.794   8.267   3.051
 7082SOL     OW31924   8.748   2.473   0.366
 7082SOL    HW131925   8.710   2.536   0.299
 7082SOL    HW231926   8.701   2.484   0.454
 7083SOL     OW31927   3.507   8.798   0.416
 7083SOL    HW131928   3.520   8.898   0.421
 7083SOL    HW231929   3.577   8.753   0.470
 7084SOL     OW31930   8.069   6.797   1.818
 7084SOL    HW131931   8.028   6.706   1.826
 7084SOL    HW231932   8.017   6.862   1.872
 7085SOL     OW31933   0.399   6.800   3.306
 7085SOL    HW131934   0.372   6.883   3.354
 7085SOL    HW231935   0.419   6.728   3.373
 7086SOL     OW31936   0.610   1.713   0.238
 7086SOL    HW131937   0.652   1.650   0.302
 7086SOL    HW231938   0.681   1.765   0.190
 7087SOL     OW31939   2.434   2.688   4.038
 7087SOL    HW131940   2.522   2.640   4.043
 7087SOL    HW231941   2.407   2.718   4.129
 7088SOL     OW31942   1.542   6.431   1.810
 7088SOL    HW131943   1.562   6.338   1.780
 7088SOL    HW231944   1.483   6.476   1.743
 7089SOL     OW31945   8.543   4.274   2.406
 7089SOL    HW131946   8.597   4.230   2.334
 7089SOL    HW231947   8.515   4.365   2.375
 7090SOL     OW31948   9.198   4.109   1.838
 7090SOL    HW131949   9.202   4.132   1.936
 7090SOL    HW231950   9.250   4.026   1.821
 7091SOL     OW31951   0.854   4.952   1.931
 7091SOL    HW131952   0.810   4.917   1.848
 7091SOL    HW231953   0.784   4.988   1.993
 7092SOL     OW31954   0.534   4.459   3.206
 7092SOL    HW131955   0.571   4.400   3.134
 7092SOL    HW231956   0.589   4.542   3.213
 7093SOL     OW31957   4.675   3.331   4.078
 7093SOL    HW131958   4.720   3.243   4.065
 7093SOL    HW231959   4.632   3.360   3.992
 7094SOL     OW31960   5.789   0.217   2.244
 7094SOL    HW131961   5.790   0.224   2.344
 7094SOL    HW231962   5.874   0.255   2.208
 7095SOL     OW31963   7.267   9.756   1.356
 7095SOL    HW131964   7.345   9.695   1.373
 7095SOL    HW231965   7.284   9.808   1.272
 7096SOL     OW31966   5.658   7.303   2.376
 7096SOL    HW131967   5.716   7.364   2.323
 7096SOL    HW231968   5.580   7.354   2.412
 7097SOL     OW31969   8.397   0.351   1.657
 7097SOL    HW131970   8.379   0.443   1.623
 7097SOL    HW231971   8.485   0.349   1.705
 7098SOL     OW31972   3.335   8.685   0.700
 7098SOL    HW131973   3.358   8.781   0.716
 7098SOL    HW231974   3.412   8.639   0.655
 7099SOL     OW31975   3.097   1.861   2.109
 7099SOL    HW131976   3.032   1.816   2.048
 7099SOL    HW231977   3.138   1.793   2.170
 7100SOL     OW31978   5.877   0.865   4.251
 7100SOL    HW131979   5.965   0.900   4.284
 7100SOL    HW231980   5.851   0.785   4.304
 7101SOL     OW31981   3.353   8.803   3.395
 7101SOL    HW131982   3.362   8.896   3.430
 7101SOL    HW231983   3.278   8.757   3.443
 7102SOL     OW31984   5.513   1.119   2.783
 7102SOL    HW131985   5.562   1.125   2.870
 7102SOL    HW231986   5.520   1.025   2.748
 7103SOL     OW31987   7.983   3.807   2.211
 7103SOL    HW131988   8.074   3.769   2.196
 7103SOL    HW231989   7.981   3.859   2.296
 7104SOL     OW31990   1.464   8.820   1.351
 7104SOL    HW131991   1.417   8.788   1.269
 7104SOL    HW231992   1.466   8.747   1.419
 7105SOL     OW31993   4.809   2.221   3.411
 7105SOL    HW131994   4.822   2.170   3.497
 7105SOL    HW231995   4.715   2.210   3.380
 7106SOL     OW31996   9.077   3.009   2.978
 7106SOL    HW131997   9.108   2.918   3.006
 7106SOL    HW231998   9.097   3.074   3.051
 7107SOL     OW31999   5.207   6.852   1.805
 7107SOL    HW132000   5.168   6.942   1.825
 7107SOL    HW232001   5.284   6.862   1.742
 7108SOL     OW32002   0.676   9.881   2.751
 7108SOL    HW132003   0.672   9.904   2.654
 7108SOL    HW232004   0.587   9.897   2.793
 7109SOL     OW32005   0.742   9.778   3.483
 7109SOL    HW132006   0.689   9.743   3.406
 7109SOL    HW232007   0.839   9.763   3.467
 7110SOL     OW32008   9.401   3.354   4.338
 7110SOL    HW132009   9.494   3.325   4.362
 7110SOL    HW232010   9.340   3.274   4.338
 7111SOL     OW32011   3.472   3.727   1.465
 7111SOL    HW132012   3.507   3.716   1.558
 7111SOL    HW232013   3.541   3.695   1.400
 7112SOL     OW32014   6.352   8.755   3.146
 7112SOL    HW132015   6.261   8.712   3.147
 7112SOL    HW232016   6.421   8.686   3.126
 7113SOL     OW32017   0.415   7.081   1.753
 7113SOL    HW132018   0.456   7.119   1.836
 7113SOL    HW232019   0.329   7.128   1.733
 7114SOL     OW32020   3.585   9.357   1.131
 7114SOL    HW132021   3.581   9.315   1.041
 7114SOL    HW232022   3.677   9.346   1.169
 7115SOL     OW32023   3.165   6.565   3.121
 7115SOL    HW132024   3.090   6.594   3.061
 7115SOL    HW232025   3.155   6.468   3.141
 7116SOL     OW32026   0.305   4.279   4.257
 7116SOL    HW132027   0.349   4.289   4.167
 7116SOL    HW232028   0.230   4.214   4.251
 7117SOL     OW32029   8.131   0.289   1.587
 7117SOL    HW132030   8.074   0.357   1.632
 7117SOL    HW232031   8.226   0.298   1.616
 7118SOL     OW32032   4.429   1.972   1.333
 7118SOL    HW132033   4.333   1.945   1.330
 7118SOL    HW232034   4.483   1.906   1.281
 7119SOL     OW32035   2.023   6.025   1.649
 7119SOL    HW132036   2.071   6.049   1.564
 7119SOL    HW232037   1.981   6.107   1.688
 7120SOL     OW32038   4.553   0.397   0.877
 7120SOL    HW132039   4.541   0.299   0.862
 7120SOL    HW232040   4.464   0.442   0.875
 7121SOL     OW32041   7.846   7.616   2.647
 7121SOL    HW132042   7.853   7.651   2.553
 7121SOL    HW232043   7.776   7.668   2.697
 7122SOL     OW32044   8.993   9.526   3.428
 7122SOL    HW132045   9.057   9.554   3.500
 7122SOL    HW232046   8.931   9.601   3.407
 7123SOL     OW32047   8.051   9.544   2.653
 7123SOL    HW132048   8.089   9.488   2.727
 7123SOL    HW232049   8.059   9.640   2.677
 7124SOL     OW32050   2.455   6.884   2.265
 7124SOL    HW132051   2.444   6.802   2.322
 7124SOL    HW232052   2.407   6.872   2.178
 7125SOL     OW32053   9.734   1.748   1.613
 7125SOL    HW132054   9.679   1.773   1.692
 7125SOL    HW232055   9.712   1.655   1.584
 7126SOL     OW32056   2.011   0.759   1.107
 7126SOL    HW132057   2.090   0.704   1.136
 7126SOL    HW232058   2.020   0.851   1.144
 7127SOL     OW32059   3.108   8.310   2.751
 7127SOL    HW132060   3.165   8.245   2.801
 7127SOL    HW232061   3.089   8.275   2.659
 7128SOL     OW32062   9.818   2.760   4.230
 7128SOL    HW132063   9.735   2.757   4.174
 7128SOL    HW232064   9.875   2.680   4.209
 7129SOL     OW32065   9.511   7.010   1.415
 7129SOL    HW132066   9.490   7.065   1.496
 7129SOL    HW232067   9.439   6.942   1.401
 7130SOL     OW32068   2.816   1.539   1.238
 7130SOL    HW132069   2.756   1.566   1.313
 7130SOL    HW232070   2.818   1.611   1.168
 7131SOL     OW32071   8.197   9.218   0.283
 7131SOL    HW132072   8.295   9.220   0.299
 7131SOL    HW232073   8.161   9.127   0.306
 7132SOL     OW32074   4.994   1.319   3.544
 7132SOL    HW132075   5.000   1.411   3.505
 7132SOL    HW232076   5.014   1.322   3.642
 7133SOL     OW32077   8.886   9.312   4.423
 7133SOL    HW132078   8.844   9.350   4.507
 7133SOL    HW232079   8.934   9.385   4.375
 7134SOL     OW32080   1.416   6.796   1.233
 7134SOL    HW132081   1.363   6.715   1.207
 7134SOL    HW232082   1.491   6.808   1.168
 7135SOL     OW32083   1.159   2.647   2.278
 7135SOL    HW132084   1.106   2.689   2.351
 7135SOL    HW232085   1.226   2.584   2.317
 7136SOL     OW32086   3.193   9.689   1.615
 7136SOL    HW132087   3.201   9.636   1.699
 7136SOL    HW232088   3.271   9.669   1.556
 7137SOL     OW32089   1.268   0.120   0.811
 7137SOL    HW132090   1.173   0.147   0.822
 7137SOL    HW232091   1.308   0.171   0.734
 7138SOL     OW32092   2.394   1.828   1.531
 7138SOL    HW132093   2.345   1.907   1.568
 7138SOL    HW232094   2.487   1.854   1.505
 7139SOL     OW32095   9.127   2.960   3.753
 7139SOL    HW132096   9.071   2.974   3.672
 7139SOL    HW232097   9.166   2.868   3.752
 7140SOL     OW32098   5.168   8.471   3.537
 7140SOL    HW132099   5.087   8.487   3.593
 7140SOL    HW232100   5.142   8.471   3.440
 7141SOL     OW32101   5.917   9.524   3.316
 7141SOL    HW132102   5.879   9.435   3.344
 7141SOL    HW232103   5.877   9.551   3.229
 7142SOL     OW32104   1.348   1.745   1.874
 7142SOL    HW132105   1.250   1.762   1.891
 7142SOL    HW232106   1.361   1.650   1.846
 7143SOL     OW32107   6.635   8.627   2.420
 7143SOL    HW132108   6.563   8.557   2.426
 7143SOL    HW232109   6.675   8.642   2.510
 7144SOL     OW32110   4.923   7.894   1.198
 7144SOL    HW132111   4.838   7.920   1.152
 7144SOL    HW232112   4.901   7.843   1.281
 7145SOL     OW32113   1.147   6.941   1.631
 7145SOL    HW132114   1.115   6.851   1.599
 7145SOL    HW232115   1.095   7.013   1.586
 7146SOL     OW32116   8.231   2.886   4.278
 7146SOL    HW132117   8.307   2.918   4.223
 7146SOL    HW232118   8.261   2.809   4.335
 7147SOL     OW32119   7.596   8.833   2.225
 7147SOL    HW132120   7.689   8.831   2.262
 7147SOL    HW232121   7.556   8.741   2.230
 7148SOL     OW32122   0.414   5.712   3.956
 7148SOL    HW132123   0.413   5.805   3.919
 7148SOL    HW232124   0.389   5.647   3.884
 7149SOL     OW32125   8.735   1.191   1.945
 7149SOL    HW132126   8.723   1.219   1.850
 7149SOL    HW232127   8.741   1.091   1.950
 7150SOL     OW32128   4.620   0.728   0.464
 7150SOL    HW132129   4.572   0.699   0.381
 7150SOL    HW232130   4.699   0.784   0.439
 7151SOL     OW32131   2.306   4.182   1.442
 7151SOL    HW132132   2.302   4.113   1.369
 7151SOL    HW232133   2.213   4.200   1.475
 7152SOL     OW32134   9.331   4.835   4.187
 7152SOL    HW132135   9.272   4.835   4.267
 7152SOL    HW232136   9.426   4.848   4.216
 7153SOL     OW32137   9.239   2.138   3.172
 7153SOL    HW132138   9.161   2.141   3.109
 7153SOL    HW232139   9.254   2.044   3.201
 7154SOL     OW32140   1.239   3.632   1.248
 7154SOL    HW132141   1.323   3.582   1.269
 7154SOL    HW232142   1.212   3.615   1.154
 7155SOL     OW32143   9.008   0.773   3.437
 7155SOL    HW132144   9.054   0.801   3.521
 7155SOL    HW232145   9.042   0.826   3.360
 7156SOL     OW32146   0.067   4.345   3.143
 7156SOL    HW132147   0.126   4.423   3.162
 7156SOL    HW232148   0.065   4.327   3.045
 7157SOL     OW32149   8.211   2.635   0.446
 7157SOL    HW132150   8.149   2.576   0.499
 7157SOL    HW232151   8.247   2.707   0.505
 7158SOL     OW32152   4.283   7.012   2.671
 7158SOL    HW132153   4.250   6.937   2.614
 7158SOL    HW232154   4.208   7.050   2.724
 7159SOL     OW32155   6.773   8.458   3.026
 7159SOL    HW132156   6.813   8.374   2.989
 7159SOL    HW232157   6.812   8.537   2.980
 7160SOL     OW32158   7.147   8.353   2.509
 7160SOL    HW132159   7.246   8.354   2.517
 7160SOL    HW232160   7.117   8.262   2.482
 7161SOL     OW32161   9.331   4.039   0.905
 7161SOL    HW132162   9.349   4.003   0.813
 7161SOL    HW232163   9.244   4.002   0.938
 7162SOL     OW32164   0.173   6.536   3.891
 7162SOL    HW132165   0.117   6.454   3.884
 7162SOL    HW232166   0.143   6.591   3.969
 7163SOL     OW32167   3.937   0.826   3.346
 7163SOL    HW132168   3.893   0.762   3.410
 7163SOL    HW232169   3.963   0.909   3.395
 7164SOL     OW32170   9.024   4.442   3.359
 7164SOL    HW132171   9.123   4.460   3.362
 7164SOL    HW232172   8.987   4.447   3.452
 7165SOL     OW32173   6.313   8.931   1.776
 7165SOL    HW132174   6.244   9.001   1.793
 7165SOL    HW232175   6.386   8.970   1.719
 7166SOL     OW32176   2.770   4.391   3.505
 7166SOL    HW132177   2.837   4.323   3.534
 7166SOL    HW232178   2.679   4.362   3.533
 7167SOL     OW32179   1.483   4.083   2.204
 7167SOL    HW132180   1.485   4.173   2.247
 7167SOL    HW232181   1.485   4.094   2.105
 7168SOL     OW32182   3.090   1.291   0.508
 7168SOL    HW132183   3.062   1.243   0.591
 7168SOL    HW232184   3.082   1.390   0.522
 7169SOL     OW32185   3.957   9.718   2.793
 7169SOL    HW132186   3.876   9.660   2.798
 7169SOL    HW232187   3.930   9.814   2.805
 7170SOL     OW32188   4.974   3.873   1.197
 7170SOL    HW132189   5.041   3.891   1.126
 7170SOL    HW232190   4.944   3.778   1.192
 7171SOL     OW32191   9.261   6.280   3.441
 7171SOL    HW132192   9.350   6.241   3.413
 7171SOL    HW232193   9.264   6.379   3.432
 7172SOL     OW32194   1.442   2.863   1.416
 7172SOL    HW132195   1.405   2.791   1.475
 7172SOL    HW232196   1.466   2.942   1.472
 7173SOL     OW32197   4.301   9.223   3.161
 7173SOL    HW132198   4.368   9.239   3.234
 7173SOL    HW232199   4.262   9.131   3.171
 7174SOL     OW32200   9.300   4.009   2.697
 7174SOL    HW132201   9.344   3.921   2.675
 7174SOL    HW232202   9.347   4.051   2.774
 7175SOL     OW32203   9.778   2.523   1.743
 7175SOL    HW132204   9.772   2.461   1.665
 7175SOL    HW232205   9.774   2.617   1.712
 7176SOL     OW32206   6.785   0.290   2.460
 7176SOL    HW132207   6.839   0.276   2.543
 7176SOL    HW232208   6.724   0.212   2.447
 7177SOL     OW32209   2.217   8.654   1.600
 7177SOL    HW132210   2.280   8.587   1.640
 7177SOL    HW232211   2.259   8.744   1.602
 7178SOL     OW32212   7.968   1.287   2.804
 7178SOL    HW132213   7.981   1.370   2.858
 7178SOL    HW232214   7.980   1.207   2.863
 7179SOL     OW32215   8.976   3.700   2.300
 7179SOL    HW132216   8.913   3.742   2.366
 7179SOL    HW232217   8.929   3.625   2.253
 7180SOL     OW32218   0.003   4.703   2.950
 7180SOL    HW132219   9.985   4.695   3.048
 7180SOL    HW232220   9.977   4.794   2.918
 7181SOL     OW32221   3.237   8.835   0.322
 7181SOL    HW132222   3.168   8.762   0.329
 7181SOL    HW232223   3.327   8.798   0.344
 7182SOL     OW32224   1.693   3.018   0.791
 7182SOL    HW132225   1.627   3.084   0.753
 7182SOL    HW232226   1.644   2.944   0.836
 7183SOL     OW32227   3.449   4.558   4.222
 7183SOL    HW132228   3.452   4.535   4.125
 7183SOL    HW232229   3.403   4.646   4.235
 7184SOL     OW32230   3.698   6.150   1.883
 7184SOL    HW132231   3.732   6.244   1.880
 7184SOL    HW232232   3.694   6.118   1.977
 7185SOL     OW32233   1.257   0.109   3.617
 7185SOL    HW132234   1.313   0.122   3.535
 7185SOL    HW232235   1.313   0.129   3.698
 7186SOL     OW32236   2.485   3.697   3.801
 7186SOL    HW132237   2.449   3.749   3.879
 7186SOL    HW232238   2.430   3.718   3.719
 7187SOL     OW32239   0.800   1.791   4.216
 7187SOL    HW132240   0.733   1.857   4.249
 7187SOL    HW232241   0.754   1.723   4.158
 7188SOL     OW32242   9.990   1.502   4.240
 7188SOL    HW132243   9.952   1.456   4.160
 7188SOL    HW232244   9.917   1.526   4.304
 7189SOL     OW32245   1.470   0.091   2.798
 7189SOL    HW132246   1.422   0.056   2.718
 7189SOL    HW232247   1.485   0.189   2.788
 7190SOL     OW32248   1.458   3.367   0.168
 7190SOL    HW132249   1.526   3.294   0.169
 7190SOL    HW232250   1.438   3.393   0.074
 7191SOL     OW32251   1.582   9.998   3.972
 7191SOL    HW132252   1.527   9.982   4.054
 7191SOL    HW232253   1.636   9.917   3.952
 7192SOL     OW32254   3.867   5.093   1.996
 7192SOL    HW132255   3.904   5.062   2.083
 7192SOL    HW232256   3.850   5.014   1.937
 7193SOL     OW32257   1.236   0.967   2.599
 7193SOL    HW132258   1.213   0.925   2.687
 7193SOL    HW232259   1.331   0.999   2.602
 7194SOL     OW32260   3.664   9.199   1.740
 7194SOL    HW132261   3.659   9.245   1.829
 7194SOL    HW232262   3.619   9.110   1.747
 7195SOL     OW32263   7.445   9.683   2.382
 7195SOL    HW132264   7.415   9.725   2.296
 7195SOL    HW232265   7.541   9.655   2.374
 7196SOL     OW32266   1.611   3.132   2.315
 7196SOL    HW132267   1.672   3.067   2.362
 7196SOL    HW232268   1.577   3.090   2.231
 7197SOL     OW32269   8.689   1.540   1.272
 7197SOL    HW132270   8.764   1.576   1.327
 7197SOL    HW232271   8.718   1.532   1.177
 7198SOL     OW32272   8.265   5.766   0.041
 7198SOL    HW132273   8.353   5.807   0.062
 7198SOL    HW232274   8.213   5.827   5.615
 7199SOL     OW32275   8.050   2.679   2.737
 7199SOL    HW132276   8.027   2.767   2.697
 7199SOL    HW232277   8.146   2.658   2.719
 7200SOL     OW32278   8.705   9.152   2.455
 7200SOL    HW132279   8.697   9.252   2.447
 7200SOL    HW232280   8.798   9.129   2.485
 7201SOL     OW32281   4.146   7.576   3.679
 7201SOL    HW132282   4.132   7.481   3.651
 7201SOL    HW232283   4.222   7.580   3.745
 7202SOL     OW32284   2.855   1.729   1.009
 7202SOL    HW132285   2.950   1.756   0.996
 7202SOL    HW232286   2.820   1.688   0.925
 7203SOL     OW32287   8.612   1.513   1.645
 7203SOL    HW132288   8.522   1.519   1.601
 7203SOL    HW232289   8.667   1.593   1.620
 7204SOL     OW32290   4.071   1.890   2.943
 7204SOL    HW132291   4.101   1.907   2.849
 7204SOL    HW232292   4.011   1.810   2.945
 7205SOL     OW32293   0.196   1.071   3.406
 7205SOL    HW132294   0.274   1.135   3.407
 7205SOL    HW232295   0.188   1.027   3.495
 7206SOL     OW32296   0.929   9.178   3.837
 7206SOL    HW132297   0.882   9.173   3.925
 7206SOL    HW232298   1.022   9.144   3.846
 7207SOL     OW32299   9.933   9.548   1.896
 7207SOL    HW132300   9.889   9.592   1.818
 7207SOL    HW232301   9.925   9.607   1.977
 7208SOL     OW32302   3.551   6.481   3.191
 7208SOL    HW132303   3.553   6.521   3.283
 7208SOL    HW232304   3.504   6.543   3.128
 7209SOL     OW32305   1.964   9.704   0.819
 7209SOL    HW132306   1.895   9.674   0.754
 7209SOL    HW232307   1.932   9.685   0.912
 7210SOL     OW32308   2.483   8.528   2.543
 7210SOL    HW132309   2.396   8.507   2.588
 7210SOL    HW232310   2.468   8.533   2.444
 7211SOL     OW32311   8.146   4.697   3.918
 7211SOL    HW132312   8.182   4.640   3.845
 7211SOL    HW232313   8.144   4.645   4.004
 7212SOL     OW32314   3.963   8.614   3.034
 7212SOL    HW132315   4.012   8.550   3.094
 7212SOL    HW232316   3.961   8.704   3.078
 7213SOL     OW32317   1.884   7.245   4.187
 7213SOL    HW132318   1.959   7.291   4.139
 7213SOL    HW232319   1.916   7.157   4.223
 7214SOL     OW32320   7.973   0.006   0.515
 7214SOL    HW132321   8.034   0.040   0.587
 7214SOL    HW232322   7.929   0.083   0.470
 7215SOL     OW32323   7.781   5.851   2.226
 7215SOL    HW132324   7.727   5.905   2.292
 7215SOL    HW232325   7.822   5.912   2.159
 7216SOL     OW32326   8.721   6.315   1.342
 7216SOL    HW132327   8.725   6.338   1.439
 7216SOL    HW232328   8.783   6.239   1.324
 7217SOL     OW32329   3.947   9.421   3.646
 7217SOL    HW132330   3.893   9.427   3.563
 7217SOL    HW232331   3.951   9.326   3.677
 7218SOL     OW32332   4.677   6.911   2.538
 7218SOL    HW132333   4.620   6.946   2.613
 7218SOL    HW232334   4.626   6.840   2.489
 7219SOL     OW32335   2.045   9.230   3.591
 7219SOL    HW132336   1.991   9.309   3.560
 7219SOL    HW232337   2.054   9.233   3.690
 7220SOL     OW32338   9.869   3.371   0.449
 7220SOL    HW132339   9.819   3.437   0.392
 7220SOL    HW232340   9.955   3.412   0.479
 7221SOL     OW32341   5.852   4.129   0.464
 7221SOL    HW132342   5.825   4.225   0.460
 7221SOL    HW232343   5.902   4.112   0.549
 7222SOL     OW32344   1.763   0.333   3.949
 7222SOL    HW132345   1.682   0.381   3.984
 7222SOL    HW232346   1.775   0.247   3.998
 7223SOL     OW32347   4.437   1.426   4.205
 7223SOL    HW132348   4.536   1.423   4.195
 7223SOL    HW232349   4.406   1.340   4.248
 7224SOL     OW32350   5.351   6.819   2.778
 7224SOL    HW132351   5.331   6.840   2.682
 7224SOL    HW232352   5.270   6.780   2.821
 7225SOL     OW32353   9.336   2.876   4.051
 7225SOL    HW132354   9.398   2.952   4.034
 7225SOL    HW232355   9.241   2.908   4.045
 7226SOL     OW32356   3.944   4.181   2.594
 7226SOL    HW132357   4.043   4.180   2.608
 7226SOL    HW232358   3.922   4.252   2.527
 7227SOL     OW32359   5.692   7.856   2.892
 7227SOL    HW132360   5.595   7.871   2.914
 7227SOL    HW232361   5.716   7.761   2.912
 7228SOL     OW32362   3.049   8.909   2.858
 7228SOL    HW132363   3.121   8.860   2.808
 7228SOL    HW232364   3.010   8.849   2.928
 7229SOL     OW32365   3.639   1.150   3.819
 7229SOL    HW132366   3.553   1.162   3.869
 7229SOL    HW232367   3.672   1.057   3.831
 7230SOL     OW32368   5.872   6.935   2.175
 7230SOL    HW132369   5.807   6.861   2.193
 7230SOL    HW232370   5.940   6.904   2.108
 7231SOL     OW32371   1.055   1.061   0.725
 7231SOL    HW132372   0.981   1.050   0.658
 7231SOL    HW232373   1.016   1.071   0.816
 7232SOL     OW32374   2.059   6.423   0.550
 7232SOL    HW132375   2.121   6.496   0.521
 7232SOL    HW232376   2.102   6.370   0.623
 7233SOL     OW32377   1.581   8.318   2.664
 7233SOL    HW132378   1.569   8.394   2.601
 7233SOL    HW232379   1.493   8.273   2.680
 7234SOL     OW32380   1.694   6.558   3.299
 7234SOL    HW132381   1.784   6.549   3.257
 7234SOL    HW232382   1.635   6.611   3.239
 7235SOL     OW32383   2.880   9.711   3.047
 7235SOL    HW132384   2.816   9.775   3.004
 7235SOL    HW232385   2.962   9.703   2.990
 7236SOL     OW32386   0.536   1.180   3.145
 7236SOL    HW132387   0.535   1.267   3.096
 7236SOL    HW232388   0.614   1.125   3.114
 7237SOL     OW32389   7.629   6.200   2.748
 7237SOL    HW132390   7.548   6.205   2.690
 7237SOL    HW232391   7.709   6.231   2.697
 7238SOL     OW32392   1.361   7.479   3.667
 7238SOL    HW132393   1.446   7.492   3.718
 7238SOL    HW232394   1.288   7.456   3.730
 7239SOL     OW32395   0.995   6.099   3.988
 7239SOL    HW132396   1.015   6.002   4.001
 7239SOL    HW232397   1.070   6.154   4.027
 7240SOL     OW32398   1.804   6.523   2.846
 7240SOL    HW132399   1.865   6.455   2.885
 7240SOL    HW232400   1.833   6.614   2.873
 7241SOL     OW32401   4.138   1.587   1.779
 7241SOL    HW132402   4.218   1.629   1.737
 7241SOL    HW232403   4.074   1.557   1.709
 7242SOL     OW32404   1.773   9.795   0.463
 7242SOL    HW132405   1.729   9.772   0.377
 7242SOL    HW232406   1.759   9.721   0.529
 7243SOL     OW32407   4.194   9.460   3.092
 7243SOL    HW132408   4.265   9.508   3.041
 7243SOL    HW232409   4.231   9.375   3.129
 7244SOL     OW32410   9.372   9.622   3.444
 7244SOL    HW132411   9.409   9.534   3.414
 7244SOL    HW232412   9.297   9.607   3.508
 7245SOL     OW32413   4.767   4.476   1.894
 7245SOL    HW132414   4.761   4.554   1.832
 7245SOL    HW232415   4.863   4.458   1.915
 7246SOL     OW32416   7.855   5.589   2.221
 7246SOL    HW132417   7.817   5.681   2.233
 7246SOL    HW232418   7.860   5.567   2.124
 7247SOL     OW32419   8.299   6.169   2.790
 7247SOL    HW132420   8.364   6.223   2.736
 7247SOL    HW232421   8.295   6.076   2.755
 7248SOL     OW32422   0.817   0.663   0.573
 7248SOL    HW132423   0.875   0.613   0.509
 7248SOL    HW232424   0.759   0.727   0.523
 7249SOL     OW32425   1.626   6.310   3.421
 7249SOL    HW132426   1.654   6.238   3.356
 7249SOL    HW232427   1.649   6.399   3.383
 7250SOL     OW32428   3.083   2.239   1.601
 7250SOL    HW132429   3.141   2.320   1.594
 7250SOL    HW232430   3.085   2.189   1.514
 7251SOL     OW32431   1.510   0.361   0.991
 7251SOL    HW132432   1.444   0.436   0.992
 7251SOL    HW232433   1.559   0.361   0.904
 7252SOL     OW32434   0.171   8.827   3.630
 7252SOL    HW132435   0.099   8.877   3.582
 7252SOL    HW232436   0.131   8.760   3.691
 7253SOL     OW32437   4.702   9.607   3.439
 7253SOL    HW132438   4.706   9.512   3.470
 7253SOL    HW232439   4.607   9.637   3.435
 7254SOL     OW32440   9.962   6.074   0.348
 7254SOL    HW132441   9.895   6.033   0.411
 7254SOL    HW232442   9.923   6.078   0.256
 7255SOL     OW32443   8.459   1.748   1.884
 7255SOL    HW132444   8.550   1.706   1.879
 7255SOL    HW232445   8.427   1.768   1.791
 7256SOL     OW32446   3.912   4.584   4.273
 7256SOL    HW132447   3.878   4.650   4.339
 7256SOL    HW232448   3.853   4.582   4.192
 7257SOL     OW32449   0.667   5.936   2.051
 7257SOL    HW132450   0.591   5.939   2.116
 7257SOL    HW232451   0.631   5.937   1.958
 7258SOL     OW32452   9.778   6.705   3.671
 7258SOL    HW132453   9.844   6.640   3.635
 7258SOL    HW232454   9.811   6.740   3.759
 7259SOL     OW32455   2.110   8.281   4.130
 7259SOL    HW132456   2.202   8.317   4.113
 7259SOL    HW232457   2.044   8.332   4.073
 7260SOL     OW32458   8.809   0.109   2.263
 7260SOL    HW132459   8.842   0.055   2.185
 7260SOL    HW232460   8.839   0.066   2.348
 7261SOL     OW32461   7.634   8.857   1.712
 7261SOL    HW132462   7.713   8.796   1.702
 7261SOL    HW232463   7.625   8.883   1.808
 7262SOL     OW32464   5.277   4.400   0.550
 7262SOL    HW132465   5.248   4.395   0.455
 7262SOL    HW232466   5.225   4.335   0.605
 7263SOL     OW32467   5.447   9.461   4.192
 7263SOL    HW132468   5.466   9.426   4.101
 7263SOL    HW232469   5.377   9.404   4.236
 7264SOL     OW32470   7.771   0.205   4.161
 7264SOL    HW132471   7.779   0.235   4.256
 7264SOL    HW232472   7.863   0.191   4.122
 7265SOL     OW32473   4.948   8.488   3.691
 7265SOL    HW132474   4.998   8.444   3.766
 7265SOL    HW232475   4.857   8.447   3.682
 7266SOL     OW32476   2.742   9.285   1.826
 7266SOL    HW132477   2.789   9.308   1.911
 7266SOL    HW232478   2.709   9.368   1.782
 7267SOL     OW32479   8.638   3.372   3.913
 7267SOL    HW132480   8.543   3.387   3.940
 7267SOL    HW232481   8.696   3.368   3.994
 7268SOL     OW32482   0.580   4.121   0.615
 7268SOL    HW132483   0.624   4.161   0.695
 7268SOL    HW232484   0.648   4.108   0.542
 7269SOL     OW32485   8.451   8.256   1.259
 7269SOL    HW132486   8.407   8.186   1.315
 7269SOL    HW232487   8.404   8.343   1.271
 7270SOL     OW32488   8.819   9.567   3.727
 7270SOL    HW132489   8.741   9.568   3.790
 7270SOL    HW232490   8.840   9.660   3.697
 7271SOL     OW32491   9.773   0.860   1.146
 7271SOL    HW132492   9.759   0.857   1.245
 7271SOL    HW232493   9.825   0.780   1.117
 7272SOL     OW32494   4.148   8.093   0.576
 7272SOL    HW132495   4.224   8.155   0.590
 7272SOL    HW232496   4.141   8.031   0.655
 7273SOL     OW32497   2.304   6.532   4.277
 7273SOL    HW132498   2.344   6.441   4.288
 7273SOL    HW232499   2.204   6.525   4.278
 7274SOL     OW32500   8.381   9.329   4.299
 7274SOL    HW132501   8.299   9.368   4.341
 7274SOL    HW232502   8.356   9.249   4.245
 7275SOL     OW32503   1.264   5.912   0.258
 7275SOL    HW132504   1.296   5.822   0.227
 7275SOL    HW232505   1.339   5.960   0.303
 7276SOL     OW32506   1.847   2.396   2.478
 7276SOL    HW132507   1.810   2.398   2.385
 7276SOL    HW232508   1.945   2.412   2.476
 7277SOL     OW32509   7.137   8.936   4.364
 7277SOL    HW132510   7.185   8.857   4.326
 7277SOL    HW232511   7.137   8.929   4.464
 7278SOL     OW32512   4.454   4.331   1.376
 7278SOL    HW132513   4.369   4.278   1.381
 7278SOL    HW232514   4.437   4.423   1.413
 7279SOL     OW32515   1.821   6.646   0.091
 7279SOL    HW132516   1.818   6.654   5.625
 7279SOL    HW232517   1.730   6.665   0.128
 7280SOL     OW32518   3.157   2.887   2.860
 7280SOL    HW132519   3.094   2.809   2.857
 7280SOL    HW232520   3.110   2.965   2.903
 7281SOL     OW32521   5.918   8.642   3.559
 7281SOL    HW132522   5.959   8.721   3.513
 7281SOL    HW232523   5.850   8.675   3.625
 7282SOL     OW32524   9.020   3.287   3.381
 7282SOL    HW132525   9.083   3.347   3.431
 7282SOL    HW232526   9.066   3.251   3.300
 7283SOL     OW32527   1.535   9.634   1.070
 7283SOL    HW132528   1.501   9.681   1.151
 7283SOL    HW232529   1.534   9.535   1.085
 7284SOL     OW32530   0.385   8.206   2.081
 7284SOL    HW132531   0.396   8.107   2.072
 7284SOL    HW232532   0.401   8.233   2.176
 7285SOL     OW32533   0.955   6.122   3.415
 7285SOL    HW132534   0.968   6.060   3.338
 7285SOL    HW232535   0.929   6.070   3.496
 7286SOL     OW32536   8.293   4.765   3.570
 7286SOL    HW132537   8.286   4.687   3.631
 7286SOL    HW232538   8.355   4.743   3.494
 7287SOL     OW32539   1.572   7.264   2.130
 7287SOL    HW132540   1.505   7.289   2.060
 7287SOL    HW232541   1.602   7.170   2.116
 7288SOL     OW32542   5.955   9.387   2.570
 7288SOL    HW132543   5.975   9.289   2.573
 7288SOL    HW232544   6.040   9.438   2.557
 7289SOL     OW32545   3.141   6.364   4.283
 7289SOL    HW132546   3.135   6.268   4.310
 7289SOL    HW232547   3.099   6.422   4.353
 7290SOL     OW32548   7.167   9.380   3.328
 7290SOL    HW132549   7.215   9.464   3.301
 7290SOL    HW232550   7.225   9.328   3.390
 7291SOL     OW32551   1.762   4.178   1.985
 7291SOL    HW132552   1.669   4.144   1.995
 7291SOL    HW232553   1.779   4.202   1.889
 7292SOL     OW32554   3.054   2.886   1.297
 7292SOL    HW132555   3.117   2.821   1.256
 7292SOL    HW232556   3.031   2.957   1.229
 7293SOL     OW32557   3.147   0.981   2.308
 7293SOL    HW132558   3.202   1.046   2.256
 7293SOL    HW232559   3.053   1.014   2.316
 7294SOL     OW32560   9.076   3.028   1.028
 7294SOL    HW132561   9.016   3.083   1.086
 7294SOL    HW232562   9.144   2.981   1.085
 7295SOL     OW32563   5.131   8.400   3.879
 7295SOL    HW132564   5.175   8.328   3.933
 7295SOL    HW232565   5.109   8.477   3.938
 7296SOL     OW32566   4.106   0.739   0.599
 7296SOL    HW132567   4.167   0.660   0.593
 7296SOL    HW232568   4.144   0.815   0.545
 7297SOL     OW32569   7.850   6.748   2.297
 7297SOL    HW132570   7.828   6.845   2.314
 7297SOL    HW232571   7.944   6.741   2.265
 7298SOL     OW32572   3.400   5.415   0.678
 7298SOL    HW132573   3.390   5.472   0.760
 7298SOL    HW232574   3.322   5.430   0.618
 7299SOL     OW32575   4.973   7.195   1.636
 7299SOL    HW132576   4.984   7.246   1.551
 7299SOL    HW232577   4.915   7.115   1.620
 7300SOL     OW32578   5.954   1.567   3.806
 7300SOL    HW132579   5.953   1.651   3.861
 7300SOL    HW232580   5.957   1.591   3.709
 7301SOL     OW32581   8.550   7.679   4.280
 7301SOL    HW132582   8.594   7.593   4.305
 7301SOL    HW232583   8.451   7.666   4.274
 7302SOL     OW32584   6.716   9.640   4.327
 7302SOL    HW132585   6.768   9.724   4.308
 7302SOL    HW232586   6.623   9.649   4.292
 7303SOL     OW32587   2.011   7.011   4.269
 7303SOL    HW132588   2.105   7.045   4.261
 7303SOL    HW232589   2.006   6.917   4.237
 7304SOL     OW32590   3.434   6.251   0.808
 7304SOL    HW132591   3.377   6.183   0.855
 7304SOL    HW232592   3.377   6.324   0.773
 7305SOL     OW32593   8.588   1.960   1.228
 7305SOL    HW132594   8.492   1.985   1.241
 7305SOL    HW232595   8.615   1.978   1.134
 7306SOL     OW32596   5.353   9.786   2.689
 7306SOL    HW132597   5.329   9.770   2.785
 7306SOL    HW232598   5.452   9.798   2.681
 7307SOL     OW32599   3.422   1.979   1.654
 7307SOL    HW132600   3.481   2.059   1.663
 7307SOL    HW232601   3.479   1.897   1.643
 7308SOL     OW32602   8.170   5.256   0.259
 7308SOL    HW132603   8.183   5.187   0.188
 7308SOL    HW232604   8.072   5.274   0.270
 7309SOL     OW32605   9.527   7.696   2.421
 7309SOL    HW132606   9.479   7.778   2.454
 7309SOL    HW232607   9.469   7.616   2.436
 7310SOL     OW32608   0.306   3.102   0.839
 7310SOL    HW132609   0.231   3.087   0.775
 7310SOL    HW232610   0.269   3.123   0.929
 7311SOL     OW32611   9.357   0.060   1.971
 7311SOL    HW132612   9.411   0.124   2.025
 7311SOL    HW232613   9.333   9.980   2.026
 7312SOL     OW32614   2.578   5.611   3.952
 7312SOL    HW132615   2.615   5.540   3.892
 7312SOL    HW232616   2.598   5.701   3.913
 7313SOL     OW32617   5.018   1.073   0.493
 7313SOL    HW132618   5.090   1.003   0.494
 7313SOL    HW232619   4.981   1.081   0.400
 7314SOL     OW32620   2.496   2.471   2.721
 7314SOL    HW132621   2.496   2.569   2.740
 7314SOL    HW232622   2.497   2.421   2.808
 7315SOL     OW32623   0.728   7.019   3.693
 7315SOL    HW132624   0.774   7.096   3.737
 7315SOL    HW232625   0.785   6.984   3.618
 7316SOL     OW32626   9.396   9.897   2.792
 7316SOL    HW132627   9.353   9.823   2.741
 7316SOL    HW232628   9.478   9.863   2.838
 7317SOL     OW32629   1.363   2.612   3.637
 7317SOL    HW132630   1.439   2.561   3.597
 7317SOL    HW232631   1.314   2.553   3.702
 7318SOL     OW32632   2.832   3.106   2.356
 7318SOL    HW132633   2.736   3.107   2.384
 7318SOL    HW232634   2.839   3.072   2.262
 7319SOL     OW32635   8.111   7.711   2.684
 7319SOL    HW132636   8.017   7.678   2.681
 7319SOL    HW232637   8.156   7.674   2.765
 7320SOL     OW32638   7.556   8.981   4.188
 7320SOL    HW132639   7.551   8.882   4.199
 7320SOL    HW232640   7.629   9.017   4.247
 7321SOL     OW32641   0.827   9.957   4.283
 7321SOL    HW132642   0.880   0.019   4.225
 7321SOL    HW232643   0.735   9.995   4.296
 7322SOL     OW32644   1.573   3.460   2.102
 7322SOL    HW132645   1.630   3.436   2.181
 7322SOL    HW232646   1.476   3.456   2.128
 7323SOL     OW32647   1.107   9.685   1.688
 7323SOL    HW132648   1.131   9.780   1.703
 7323SOL    HW232649   1.188   9.628   1.702
 7324SOL     OW32650   1.472   0.437   0.302
 7324SOL    HW132651   1.541   0.441   0.229
 7324SOL    HW232652   1.385   0.407   0.263
 7325SOL     OW32653   7.724   8.684   1.030
 7325SOL    HW132654   7.631   8.680   0.994
 7325SOL    HW232655   7.728   8.748   1.106
 7326SOL     OW32656   8.653   9.047   1.815
 7326SOL    HW132657   8.717   8.990   1.866
 7326SOL    HW232658   8.667   9.143   1.840
 7327SOL     OW32659   0.504   8.661   0.202
 7327SOL    HW132660   0.462   8.749   0.180
 7327SOL    HW232661   0.444   8.609   0.262
 7328SOL     OW32662   8.402   3.263   1.664
 7328SOL    HW132663   8.437   3.350   1.630
 7328SOL    HW232664   8.344   3.280   1.744
 7329SOL     OW32665   1.874   3.212   3.971
 7329SOL    HW132666   1.890   3.160   3.887
 7329SOL    HW232667   1.956   3.210   4.027
 7330SOL     OW32668   0.043   5.451   1.505
 7330SOL    HW132669   0.102   5.391   1.451
 7330SOL    HW232670   0.050   5.545   1.473
 7331SOL     OW32671   5.313   8.325   2.271
 7331SOL    HW132672   5.230   8.287   2.231
 7331SOL    HW232673   5.375   8.250   2.296
 7332SOL     OW32674   1.897   9.133   1.183
 7332SOL    HW132675   1.887   9.145   1.085
 7332SOL    HW232676   1.823   9.076   1.218
 7333SOL     OW32677   4.358   2.547   3.940
 7333SOL    HW132678   4.327   2.515   3.851
 7333SOL    HW232679   4.279   2.572   3.996
 7334SOL     OW32680   6.288   7.454   2.325
 7334SOL    HW132681   6.273   7.445   2.424
 7334SOL    HW232682   6.221   7.399   2.276
 7335SOL     OW32683   0.787   0.792   0.160
 7335SOL    HW132684   0.879   0.774   0.196
 7335SOL    HW232685   0.759   0.885   0.184
 7336SOL     OW32686   1.963   8.750   1.630
 7336SOL    HW132687   1.948   8.747   1.729
 7336SOL    HW232688   2.052   8.710   1.608
 7337SOL     OW32689   3.779   3.003   3.399
 7337SOL    HW132690   3.797   3.015   3.497
 7337SOL    HW232691   3.691   3.045   3.377
 7338SOL     OW32692   8.162   6.672   4.400
 7338SOL    HW132693   8.185   6.688   4.496
 7338SOL    HW232694   8.133   6.757   4.358
 7339SOL     OW32695   6.713   9.397   1.404
 7339SOL    HW132696   6.767   9.329   1.452
 7339SOL    HW232697   6.616   9.376   1.415
 7340SOL     OW32698   3.357   2.293   0.174
 7340SOL    HW132699   3.447   2.312   0.215
 7340SOL    HW232700   3.358   2.202   0.134
 7341SOL     OW32701   7.914   9.909   0.038
 7341SOL    HW132702   8.003   9.892   0.079
 7341SOL    HW232703   7.905   9.856   5.588
 7342SOL     OW32704   9.287   5.372   3.408
 7342SOL    HW132705   9.211   5.404   3.352
 7342SOL    HW232706   9.253   5.333   3.493
 7343SOL     OW32707   2.403   9.969   4.025
 7343SOL    HW132708   2.400   9.986   3.926
 7343SOL    HW232709   2.487   9.919   4.047
 7344SOL     OW32710   1.728   8.679   0.500
 7344SOL    HW132711   1.717   8.606   0.432
 7344SOL    HW232712   1.706   8.767   0.459
 7345SOL     OW32713   9.350   6.575   1.494
 7345SOL    HW132714   9.418   6.542   1.559
 7345SOL    HW232715   9.365   6.532   1.405
 7346SOL     OW32716   5.603   8.557   2.791
 7346SOL    HW132717   5.532   8.539   2.858
 7346SOL    HW232718   5.693   8.553   2.835
 7347SOL     OW32719   4.370   3.604   2.395
 7347SOL    HW132720   4.435   3.528   2.396
 7347SOL    HW232721   4.279   3.570   2.373
 7348SOL     OW32722   3.178   6.994   0.956
 7348SOL    HW132723   3.166   6.895   0.971
 7348SOL    HW232724   3.273   7.013   0.934
 7349SOL     OW32725   0.840   6.068   3.012
 7349SOL    HW132726   0.867   6.163   3.001
 7349SOL    HW232727   0.885   6.029   3.092
 7350SOL     OW32728   9.622   9.782   0.787
 7350SOL    HW132729   9.557   9.798   0.862
 7350SOL    HW232730   9.708   9.748   0.825
 7351SOL     OW32731   3.993   0.065   1.246
 7351SOL    HW132732   4.037   0.012   1.319
 7351SOL    HW232733   4.062   0.114   1.194
 7352SOL     OW32734   8.254   9.934   3.107
 7352SOL    HW132735   8.204   9.847   3.111
 7352SOL    HW232736   8.203   0.004   3.157
 7353SOL     OW32737   7.894   3.534   2.418
 7353SOL    HW132738   7.972   3.478   2.446
 7353SOL    HW232739   7.883   3.611   2.482
 7354SOL     OW32740   9.729   7.719   0.780
 7354SOL    HW132741   9.737   7.781   0.702
 7354SOL    HW232742   9.812   7.724   0.835
 7355SOL     OW32743   6.629   1.750   3.033
 7355SOL    HW132744   6.708   1.784   3.083
 7355SOL    HW232745   6.645   1.656   3.004
 7356SOL     OW32746   7.363   9.879   4.155
 7356SOL    HW132747   7.288   9.929   4.198
 7356SOL    HW232748   7.330   9.791   4.122
 7357SOL     OW32749   9.792   3.858   4.379
 7357SOL    HW132750   9.774   3.947   4.337
 7357SOL    HW232751   9.844   3.870   4.464
 7358SOL     OW32752   1.454   2.441   0.533
 7358SOL    HW132753   1.445   2.373   0.460
 7358SOL    HW232754   1.383   2.426   0.602
 7359SOL     OW32755   0.732   7.506   2.042
 7359SOL    HW132756   0.677   7.489   1.960
 7359SOL    HW232757   0.674   7.501   2.123
 7360SOL     OW32758   2.375   6.266   2.910
 7360SOL    HW132759   2.337   6.203   2.978
 7360SOL    HW232760   2.303   6.291   2.845
 7361SOL     OW32761   2.165   3.625   0.664
 7361SOL    HW132762   2.139   3.680   0.584
 7361SOL    HW232763   2.259   3.592   0.652
 7362SOL     OW32764   4.165   8.993   1.384
 7362SOL    HW132765   4.202   8.983   1.292
 7362SOL    HW232766   4.203   9.075   1.426
 7363SOL     OW32767   3.043   1.455   2.443
 7363SOL    HW132768   2.971   1.437   2.509
 7363SOL    HW232769   3.132   1.439   2.485
 7364SOL     OW32770   7.046   0.619   0.183
 7364SOL    HW132771   6.957   0.594   0.145
 7364SOL    HW232772   7.061   0.718   0.173
 7365SOL     OW32773   2.018   6.745   3.881
 7365SOL    HW132774   2.019   6.645   3.877
 7365SOL    HW232775   1.966   6.781   3.803
 7366SOL     OW32776   9.469   8.209   4.361
 7366SOL    HW132777   9.526   8.263   4.299
 7366SOL    HW232778   9.499   8.224   4.455
 7367SOL     OW32779   1.725   2.523   3.754
 7367SOL    HW132780   1.809   2.497   3.707
 7367SOL    HW232781   1.733   2.618   3.785
 7368SOL     OW32782   8.503   8.559   2.078
 7368SOL    HW132783   8.435   8.533   2.009
 7368SOL    HW232784   8.589   8.512   2.061
 7369SOL     OW32785   8.858   3.701   1.707
 7369SOL    HW132786   8.957   3.717   1.714
 7369SOL    HW232787   8.811   3.761   1.771
 7370SOL     OW32788   0.531   9.443   1.685
 7370SOL    HW132789   0.592   9.489   1.749
 7370SOL    HW232790   0.529   9.345   1.705
 7371SOL     OW32791   2.839   5.322   2.285
 7371SOL    HW132792   2.811   5.291   2.377
 7371SOL    HW232793   2.903   5.398   2.294
 7372SOL     OW32794   7.193   0.189   0.676
 7372SOL    HW132795   7.206   0.137   0.761
 7372SOL    HW232796   7.204   0.287   0.695
 7373SOL     OW32797   1.370   4.643   0.292
 7373SOL    HW132798   1.358   4.701   0.212
 7373SOL    HW232799   1.366   4.547   0.264
 7374SOL     OW32800   0.592   4.550   4.284
 7374SOL    HW132801   0.592   4.457   4.319
 7374SOL    HW232802   0.685   4.588   4.292
 7375SOL     OW32803   9.911   6.519   4.203
 7375SOL    HW132804   9.847   6.495   4.275
 7375SOL    HW232805   9.864   6.520   4.115
 7376SOL     OW32806   8.108   6.344   4.029
 7376SOL    HW132807   8.069   6.274   4.089
 7376SOL    HW232808   8.169   6.403   4.083
 7377SOL     OW32809   2.453   0.544   0.842
 7377SOL    HW132810   2.500   0.626   0.874
 7377SOL    HW232811   2.410   0.498   0.920
 7378SOL     OW32812   8.337   1.704   3.246
 7378SOL    HW132813   8.244   1.704   3.281
 7378SOL    HW232814   8.353   1.620   3.194
 7379SOL     OW32815   6.458   8.418   1.957
 7379SOL    HW132816   6.500   8.331   1.931
 7379SOL    HW232817   6.515   8.463   2.025
 7380SOL     OW32818   6.480   0.632   1.940
 7380SOL    HW132819   6.520   0.714   1.898
 7380SOL    HW232820   6.391   0.613   1.897
 7381SOL     OW32821   9.752   4.467   2.308
 7381SOL    HW132822   9.822   4.425   2.366
 7381SOL    HW232823   9.759   4.429   2.215
 7382SOL     OW32824   9.354   0.010   0.412
 7382SOL    HW132825   9.287   0.074   0.451
 7382SOL    HW232826   9.424   9.989   0.480
 7383SOL     OW32827   5.029   1.743   2.875
 7383SOL    HW132828   5.043   1.745   2.776
 7383SOL    HW232829   5.028   1.837   2.910
 7384SOL     OW32830   2.400   9.244   3.105
 7384SOL    HW132831   2.405   9.344   3.105
 7384SOL    HW232832   2.451   9.208   3.027
 7385SOL     OW32833   7.078   1.395   3.752
 7385SOL    HW132834   7.019   1.450   3.810
 7385SOL    HW232835   7.024   1.353   3.679
 7386SOL     OW32836   0.431   1.572   4.134
 7386SOL    HW132837   0.526   1.574   4.103
 7386SOL    HW232838   0.385   1.492   4.095
 7387SOL     OW32839   2.843   3.366   3.886
 7387SOL    HW132840   2.799   3.379   3.797
 7387SOL    HW232841   2.819   3.441   3.947
 7388SOL     OW32842   1.270   2.439   3.843
 7388SOL    HW132843   1.261   2.341   3.861
 7388SOL    HW232844   1.356   2.472   3.881
 7389SOL     OW32845   4.217   4.173   1.381
 7389SOL    HW132846   4.130   4.223   1.384
 7389SOL    HW232847   4.204   4.081   1.418
 7390SOL     OW32848   0.579   0.158   1.704
 7390SOL    HW132849   0.511   0.210   1.652
 7390SOL    HW232850   0.667   0.163   1.657
 7391SOL     OW32851   9.723   8.557   1.414
 7391SOL    HW132852   9.723   8.494   1.492
 7391SOL    HW232853   9.707   8.506   1.330
 7392SOL     OW32854   1.735   7.690   0.312
 7392SOL    HW132855   1.723   7.614   0.247
 7392SOL    HW232856   1.661   7.756   0.300
 7393SOL     OW32857   9.294   8.482   1.261
 7393SOL    HW132858   9.206   8.508   1.302
 7393SOL    HW232859   9.369   8.515   1.319
 7394SOL     OW32860   3.142   4.125   3.756
 7394SOL    HW132861   3.118   4.030   3.776
 7394SOL    HW232862   3.071   4.164   3.696
 7395SOL     OW32863   7.726   0.597   4.186
 7395SOL    HW132864   7.717   0.553   4.276
 7395SOL    HW232865   7.684   0.539   4.116
 7396SOL     OW32866   6.229   6.957   2.696
 7396SOL    HW132867   6.152   7.016   2.720
 7396SOL    HW232868   6.285   7.002   2.626
 7397SOL     OW32869   4.408   8.392   0.206
 7397SOL    HW132870   4.462   8.477   0.212
 7397SOL    HW232871   4.339   8.392   0.279
 7398SOL     OW32872   0.309   7.305   2.465
 7398SOL    HW132873   0.269   7.214   2.457
 7398SOL    HW232874   0.332   7.323   2.561
 7399SOL     OW32875   8.314   8.038   4.291
 7399SOL    HW132876   8.310   7.999   4.383
 7399SOL    HW232877   8.281   8.132   4.293
 7400SOL     OW32878   0.418   8.674   4.032
 7400SOL    HW132879   0.484   8.618   4.081
 7400SOL    HW232880   0.411   8.643   3.937
 7401SOL     OW32881   5.620   6.727   2.007
 7401SOL    HW132882   5.652   6.705   2.099
 7401SOL    HW232883   5.526   6.762   2.011
 7402SOL     OW32884   7.139   9.999   4.305
 7402SOL    HW132885   7.096   0.089   4.305
 7402SOL    HW232886   7.149   9.967   4.399
 7403SOL     OW32887   7.616   3.687   1.534
 7403SOL    HW132888   7.561   3.632   1.597
 7403SOL    HW232889   7.712   3.681   1.560
 7404SOL     OW32890   7.298   9.617   3.259
 7404SOL    HW132891   7.328   9.602   3.165
 7404SOL    HW232892   7.281   9.714   3.273
 7405SOL     OW32893   8.942   0.070   1.247
 7405SOL    HW132894   9.022   0.013   1.231
 7405SOL    HW232895   8.859   0.017   1.229
 7406SOL     OW32896   3.691   3.408   3.027
 7406SOL    HW132897   3.598   3.409   3.065
 7406SOL    HW232898   3.752   3.457   3.088
 7407SOL     OW32899   0.511   5.487   0.280
 7407SOL    HW132900   0.438   5.423   0.256
 7407SOL    HW232901   0.588   5.437   0.320
 7408SOL     OW32902   8.554   0.018   0.135
 7408SOL    HW132903   8.513   9.930   0.159
 7408SOL    HW232904   8.486   0.091   0.148
 7409SOL     OW32905   0.132   6.520   0.276
 7409SOL    HW132906   0.048   6.494   0.229
 7409SOL    HW232907   0.112   6.548   0.370
 7410SOL     OW32908   1.234   4.589   1.925
 7410SOL    HW132909   1.174   4.515   1.896
 7410SOL    HW232910   1.181   4.673   1.934
 7411SOL     OW32911   5.172   2.977   0.910
 7411SOL    HW132912   5.249   2.965   0.847
 7411SOL    HW232913   5.096   2.920   0.881
 7412SOL     OW32914   4.533   2.325   2.976
 7412SOL    HW132915   4.611   2.387   2.972
 7412SOL    HW232916   4.483   2.338   3.061
 7413SOL     OW32917   6.173   8.369   1.446
 7413SOL    HW132918   6.085   8.348   1.489
 7413SOL    HW232919   6.228   8.286   1.441
 7414SOL     OW32920   0.582   4.911   3.109
 7414SOL    HW132921   0.615   4.960   3.029
 7414SOL    HW232922   0.570   4.975   3.185
 7415SOL     OW32923   9.954   1.931   3.188
 7415SOL    HW132924   9.960   1.834   3.166
 7415SOL    HW232925   0.017   1.953   3.262
 7416SOL     OW32926   5.152   8.451   1.950
 7416SOL    HW132927   5.162   8.434   1.852
 7416SOL    HW232928   5.240   8.476   1.989
 7417SOL     OW32929   0.920   3.558   3.093
 7417SOL    HW132930   0.873   3.489   3.038
 7417SOL    HW232931   0.864   3.641   3.098
 7418SOL     OW32932   9.447   4.953   1.545
 7418SOL    HW132933   9.445   5.019   1.621
 7418SOL    HW232934   9.395   4.871   1.571
 7419SOL     OW32935   3.220   8.968   3.157
 7419SOL    HW132936   3.208   8.892   3.094
 7419SOL    HW232937   3.243   8.932   3.248
 7420SOL     OW32938   2.280   4.123   4.325
 7420SOL    HW132939   2.370   4.168   4.324
 7420SOL    HW232940   2.211   4.189   4.355
 7421SOL     OW32941   7.995   1.740   2.287
 7421SOL    HW132942   8.070   1.718   2.225
 7421SOL    HW232943   7.986   1.668   2.356
 7422SOL     OW32944   9.449   1.193   1.201
 7422SOL    HW132945   9.513   1.150   1.136
 7422SOL    HW232946   9.489   1.279   1.234
 7423SOL     OW32947   0.564   0.018   4.320
 7423SOL    HW132948   0.527   0.034   4.412
 7423SOL    HW232949   0.490   0.010   4.255
 7424SOL     OW32950   9.656   4.736   0.753
 7424SOL    HW132951   9.656   4.835   0.762
 7424SOL    HW232952   9.659   4.710   0.657
 7425SOL     OW32953   4.514   9.661   1.828
 7425SOL    HW132954   4.455   9.687   1.905
 7425SOL    HW232955   4.471   9.587   1.776
 7426SOL     OW32956   4.472   0.619   2.232
 7426SOL    HW132957   4.406   0.548   2.210
 7426SOL    HW232958   4.442   0.669   2.313
 7427SOL     OW32959   7.686   3.429   0.998
 7427SOL    HW132960   7.631   3.431   1.082
 7427SOL    HW232961   7.731   3.341   0.989
 7428SOL     OW32962   5.344   0.615   3.614
 7428SOL    HW132963   5.379   0.620   3.708
 7428SOL    HW232964   5.358   0.522   3.579
 7429SOL     OW32965   8.565   6.041   3.040
 7429SOL    HW132966   8.655   6.033   2.998
 7429SOL    HW232967   8.506   5.968   3.006
 7430SOL     OW32968   8.363   7.339   2.862
 7430SOL    HW132969   8.348   7.310   2.767
 7430SOL    HW232970   8.281   7.320   2.916
 7431SOL     OW32971   1.484   4.392   0.541
 7431SOL    HW132972   1.418   4.467   0.548
 7431SOL    HW232973   1.455   4.316   0.598
 7432SOL     OW32974   7.364   6.787   2.544
 7432SOL    HW132975   7.436   6.742   2.492
 7432SOL    HW232976   7.397   6.875   2.578
 7433SOL     OW32977   9.398   6.901   3.527
 7433SOL    HW132978   9.421   6.889   3.431
 7433SOL    HW232979   9.300   6.918   3.536
 7434SOL     OW32980   9.613   9.406   1.202
 7434SOL    HW132981   9.607   9.323   1.258
 7434SOL    HW232982   9.525   9.423   1.158
 7435SOL     OW32983   8.809   3.195   1.827
 7435SOL    HW132984   8.810   3.207   1.926
 7435SOL    HW232985   8.792   3.284   1.784
 7436SOL     OW32986   1.702   0.328   1.565
 7436SOL    HW132987   1.699   0.397   1.637
 7436SOL    HW232988   1.615   0.325   1.517
 7437SOL     OW32989   4.762   4.152   0.199
 7437SOL    HW132990   4.802   4.215   0.265
 7437SOL    HW232991   4.698   4.091   0.245
 7438SOL     OW32992   3.374   7.363   2.103
 7438SOL    HW132993   3.309   7.288   2.084
 7438SOL    HW232994   3.463   7.340   2.064
 7439SOL     OW32995   9.317   3.215   2.076
 7439SOL    HW132996   9.405   3.225   2.029
 7439SOL    HW232997   9.296   3.117   2.086
 7440SOL     OW32998   7.560   8.704   4.230
 7440SOL    HW132999   7.535   8.608   4.242
 7440SOL    HW233000   7.656   8.710   4.201
 7441SOL     OW33001   2.486   0.748   1.189
 7441SOL    HW133002   2.562   0.730   1.251
 7441SOL    HW233003   2.440   0.833   1.217
 7442SOL     OW33004   8.070   5.301   3.866
 7442SOL    HW133005   8.122   5.239   3.926
 7442SOL    HW233006   8.030   5.249   3.791
 7443SOL     OW33007   9.620   4.422   0.588
 7443SOL    HW133008   9.629   4.362   0.508
 7443SOL    HW233009   9.629   4.518   0.559
 7444SOL     OW33010   9.723   8.706   0.550
 7444SOL    HW133011   9.706   8.671   0.458
 7444SOL    HW233012   9.679   8.646   0.617
 7445SOL     OW33013   3.347   4.110   3.575
 7445SOL    HW133014   3.438   4.123   3.615
 7445SOL    HW233015   3.277   4.129   3.644
 7446SOL     OW33016   1.918   0.750   0.244
 7446SOL    HW133017   1.938   0.768   0.340
 7446SOL    HW233018   2.000   0.714   0.199
 7447SOL     OW33019   4.167   3.916   3.792
 7447SOL    HW133020   4.190   4.006   3.756
 7447SOL    HW233021   4.151   3.922   3.890
 7448SOL     OW33022   7.959   1.360   0.972
 7448SOL    HW133023   7.970   1.450   0.929
 7448SOL    HW233024   8.034   1.300   0.943
 7449SOL     OW33025   0.982   3.157   3.103
 7449SOL    HW133026   0.966   3.189   3.196
 7449SOL    HW233027   1.067   3.197   3.068
 7450SOL     OW33028   2.253   4.275   0.482
 7450SOL    HW133029   2.329   4.291   0.419
 7450SOL    HW233030   2.282   4.296   0.575
 7451SOL     OW33031   9.682   9.952   3.420
 7451SOL    HW133032   9.661   9.944   3.322
 7451SOL    HW233033   9.718   0.043   3.438
 7452SOL     OW33034   3.265   5.731   0.337
 7452SOL    HW133035   3.240   5.748   0.432
 7452SOL    HW233036   3.285   5.633   0.325
 7453SOL     OW33037   4.707   8.341   2.003
 7453SOL    HW133038   4.685   8.265   1.941
 7453SOL    HW233039   4.779   8.397   1.962
 7454SOL     OW33040   0.762   6.910   4.163
 7454SOL    HW133041   0.744   7.008   4.172
 7454SOL    HW233042   0.755   6.884   4.067
 7455SOL     OW33043   3.967   4.262   0.883
 7455SOL    HW133044   3.975   4.283   0.981
 7455SOL    HW233045   4.042   4.202   0.856
 7456SOL     OW33046   6.213   0.590   4.201
 7456SOL    HW133047   6.188   0.635   4.115
 7456SOL    HW233048   6.223   0.659   4.273
 7457SOL     OW33049   4.138   8.653   2.562
 7457SOL    HW133050   4.133   8.625   2.657
 7457SOL    HW233051   4.050   8.639   2.518
 7458SOL     OW33052   3.597   1.057   2.062
 7458SOL    HW133053   3.693   1.040   2.082
 7458SOL    HW233054   3.582   1.156   2.056
 7459SOL     OW33055   2.311   4.949   3.142
 7459SOL    HW133056   2.401   4.922   3.109
 7459SOL    HW233057   2.293   5.045   3.117
 7460SOL     OW33058   2.102   9.690   3.921
 7460SOL    HW133059   2.130   9.778   3.881
 7460SOL    HW233060   2.093   9.700   4.020
 7461SOL     OW33061   8.730   7.960   3.416
 7461SOL    HW133062   8.696   8.045   3.455
 7461SOL    HW233063   8.827   7.949   3.438
 7462SOL     OW33064   3.834   7.671   4.419
 7462SOL    HW133065   3.835   7.577   4.385
 7462SOL    HW233066   3.795   7.673   4.511
 7463SOL     OW33067   1.822   1.174   0.147
 7463SOL    HW133068   1.917   1.175   0.178
 7463SOL    HW233069   1.783   1.083   0.160
 7464SOL     OW33070   3.654   1.546   3.699
 7464SOL    HW133071   3.591   1.469   3.685
 7464SOL    HW233072   3.677   1.586   3.610
 7465SOL     OW33073   8.882   8.442   1.246
 7465SOL    HW133074   8.831   8.527   1.232
 7465SOL    HW233075   8.820   8.373   1.284
 7466SOL     OW33076   5.590   9.605   3.238
 7466SOL    HW133077   5.519   9.569   3.178
 7466SOL    HW233078   5.675   9.618   3.186
 7467SOL     OW33079   9.752   7.430   1.553
 7467SOL    HW133080   9.791   7.481   1.477
 7467SOL    HW233081   9.657   7.407   1.533
 7468SOL     OW33082   3.187   0.374   3.902
 7468SOL    HW133083   3.211   0.471   3.898
 7468SOL    HW233084   3.141   0.347   3.817
 7469SOL     OW33085   4.902   0.641   3.727
 7469SOL    HW133086   4.810   0.669   3.697
 7469SOL    HW233087   4.970   0.704   3.688
 7470SOL     OW33088   6.325   8.503   3.536
 7470SOL    HW133089   6.292   8.596   3.522
 7470SOL    HW233090   6.392   8.480   3.465
 7471SOL     OW33091   0.614   9.795   2.259
 7471SOL    HW133092   0.696   9.760   2.214
 7471SOL    HW233093   0.574   9.723   2.317
 7472SOL     OW33094   8.637   6.472   1.120
 7472SOL    HW133095   8.693   6.416   1.181
 7472SOL    HW233096   8.545   6.482   1.158
 7473SOL     OW33097   1.635   8.239   1.760
 7473SOL    HW133098   1.722   8.266   1.719
 7473SOL    HW233099   1.609   8.307   1.829
 7474SOL     OW33100   1.204   4.612   3.058
 7474SOL    HW133101   1.210   4.519   3.021
 7474SOL    HW233102   1.288   4.662   3.036
 7475SOL     OW33103   4.583   6.943   2.228
 7475SOL    HW133104   4.544   6.860   2.268
 7475SOL    HW233105   4.513   6.991   2.175
 7476SOL     OW33106   9.652   6.194   1.158
 7476SOL    HW133107   9.652   6.290   1.187
 7476SOL    HW233108   9.672   6.135   1.236
 7477SOL     OW33109   0.967   9.162   2.359
 7477SOL    HW133110   0.875   9.200   2.348
 7477SOL    HW233111   1.024   9.228   2.406
 7478SOL     OW33112   4.067   9.904   3.847
 7478SOL    HW133113   4.091   9.943   3.758
 7478SOL    HW233114   4.043   9.808   3.836
 7479SOL     OW33115   1.575   8.520   2.472
 7479SOL    HW133116   1.536   8.611   2.486
 7479SOL    HW233117   1.671   8.530   2.443
 7480SOL     OW33118   8.160   7.294   1.659
 7480SOL    HW133119   8.129   7.213   1.610
 7480SOL    HW233120   8.137   7.376   1.606
 7481SOL     OW33121   3.678   8.280   0.730
 7481SOL    HW133122   3.644   8.347   0.796
 7481SOL    HW233123   3.722   8.204   0.778
 7482SOL     OW33124   8.023   3.637   1.875
 7482SOL    HW133125   7.989   3.730   1.889
 7482SOL    HW233126   7.998   3.580   1.952
 7483SOL     OW33127   2.191   1.765   2.446
 7483SOL    HW133128   2.123   1.816   2.499
 7483SOL    HW233129   2.277   1.762   2.498
 7484SOL     OW33130   2.646   0.379   0.155
 7484SOL    HW133131   2.726   0.344   0.105
 7484SOL    HW233132   2.675   0.452   0.217
 7485SOL     OW33133   9.434   2.119   0.859
 7485SOL    HW133134   9.457   2.049   0.792
 7485SOL    HW233135   9.432   2.079   0.951
 7486SOL     OW33136   8.029   7.127   0.885
 7486SOL    HW133137   7.929   7.124   0.878
 7486SOL    HW233138   8.069   7.110   0.794
 7487SOL     OW33139   2.868   0.819   0.329
 7487SOL    HW133140   2.965   0.809   0.307
 7487SOL    HW233141   2.858   0.856   0.421
 7488SOL     OW33142   3.238   1.893   2.441
 7488SOL    HW133143   3.154   1.945   2.430
 7488SOL    HW233144   3.307   1.927   2.378
 7489SOL     OW33145   8.522   4.225   3.356
 7489SOL    HW133146   8.469   4.141   3.369
 7489SOL    HW233147   8.608   4.203   3.310
 7490SOL     OW33148   0.125   3.337   1.966
 7490SOL    HW133149   0.131   3.401   1.889
 7490SOL    HW233150   0.154   3.384   2.050
 7491SOL     OW33151   8.304   5.377   3.456
 7491SOL    HW133152   8.294   5.384   3.357
 7491SOL    HW233153   8.251   5.450   3.500
 7492SOL     OW33154   2.120   4.344   1.995
 7492SOL    HW133155   2.086   4.261   2.040
 7492SOL    HW233156   2.220   4.341   1.991
 7493SOL     OW33157   3.054   8.782   4.275
 7493SOL    HW133158   3.112   8.703   4.256
 7493SOL    HW233159   3.104   8.847   4.332
 7494SOL     OW33160   8.978   7.830   2.044
 7494SOL    HW133161   8.879   7.842   2.049
 7494SOL    HW233162   9.004   7.805   1.950
 7495SOL     OW33163   8.590   9.260   3.564
 7495SOL    HW133164   8.684   9.267   3.599
 7495SOL    HW233165   8.591   9.215   3.475
 7496SOL     OW33166   4.386   1.573   1.107
 7496SOL    HW133167   4.403   1.475   1.093
 7496SOL    HW233168   4.345   1.587   1.198
 7497SOL     OW33169   9.532   8.109   1.344
 7497SOL    HW133170   9.468   8.032   1.338
 7497SOL    HW233171   9.541   8.137   1.439
 7498SOL     OW33172   6.704   8.656   2.687
 7498SOL    HW133173   6.624   8.680   2.740
 7498SOL    HW233174   6.781   8.637   2.748
 7499SOL     OW33175   1.113   3.132   2.771
 7499SOL    HW133176   1.023   3.113   2.732
 7499SOL    HW233177   1.168   3.184   2.705
 7500SOL     OW33178   8.120   1.950   2.899
 7500SOL    HW133179   8.176   2.024   2.935
 7500SOL    HW233180   8.110   1.960   2.800
 7501SOL     OW33181   0.086   1.105   1.918
 7501SOL    HW133182   9.998   1.100   1.871
 7501SOL    HW233183   0.073   1.083   2.015
 7502SOL     OW33184   9.886   6.023   2.814
 7502SOL    HW133185   9.833   6.028   2.899
 7502SOL    HW233186   9.968   5.967   2.829
 7503SOL     OW33187   7.809   9.824   4.295
 7503SOL    HW133188   7.734   9.890   4.288
 7503SOL    HW233189   7.893   9.865   4.257
 7504SOL     OW33190   0.413   5.957   3.829
 7504SOL    HW133191   0.369   6.037   3.872
 7504SOL    HW233192   0.510   5.975   3.816
 7505SOL     OW33193   2.967   3.604   3.726
 7505SOL    HW133194   3.035   3.541   3.763
 7505SOL    HW233195   2.908   3.555   3.661
 7506SOL     OW33196   2.227   5.535   1.168
 7506SOL    HW133197   2.209   5.614   1.110
 7506SOL    HW233198   2.326   5.520   1.174
 7507SOL     OW33199   7.223   0.139   4.052
 7507SOL    HW133200   7.281   0.216   4.079
 7507SOL    HW233201   7.168   0.110   4.131
 7508SOL     OW33202   2.040   3.575   1.410
 7508SOL    HW133203   1.976   3.646   1.440
 7508SOL    HW233204   2.072   3.595   1.318
 7509SOL     OW33205   4.196   3.154   0.699
 7509SOL    HW133206   4.281   3.205   0.704
 7509SOL    HW233207   4.207   3.077   0.636
 7510SOL     OW33208   1.534   8.215   1.500
 7510SOL    HW133209   1.567   8.224   1.594
 7510SOL    HW233210   1.596   8.265   1.439
 7511SOL     OW33211   8.313   1.149   3.448
 7511SOL    HW133212   8.316   1.200   3.534
 7511SOL    HW233213   8.393   1.090   3.442
 7512SOL     OW33214   3.404   4.972   1.081
 7512SOL    HW133215   3.320   4.997   1.033
 7512SOL    HW233216   3.381   4.919   1.163
 7513SOL     OW33217   7.544   1.978   1.147
 7513SOL    HW133218   7.583   2.062   1.109
 7513SOL    HW233219   7.549   1.905   1.079
 7514SOL     OW33220   9.656   9.190   0.841
 7514SOL    HW133221   9.674   9.230   0.752
 7514SOL    HW233222   9.558   9.194   0.860
 7515SOL     OW33223   0.391   9.429   1.041
 7515SOL    HW133224   0.443   9.481   1.108
 7515SOL    HW233225   0.399   9.474   0.951
 7516SOL     OW33226   9.080   9.163   0.257
 7516SOL    HW133227   9.004   9.111   0.221
 7516SOL    HW233228   9.123   9.216   0.183
 7517SOL     OW33229   0.676   0.820   3.265
 7517SOL    HW133230   0.689   0.899   3.325
 7517SOL    HW233231   0.765   0.788   3.232
 7518SOL     OW33232   0.520   7.279   3.647
 7518SOL    HW133233   0.524   7.278   3.547
 7518SOL    HW233234   0.484   7.191   3.680
 7519SOL     OW33235   0.098   9.345   0.561
 7519SOL    HW133236   0.121   9.266   0.617
 7519SOL    HW233237   0.019   9.323   0.503
 7520SOL     OW33238   0.508   6.289   0.286
 7520SOL    HW133239   0.593   6.341   0.286
 7520SOL    HW233240   0.446   6.326   0.217
 7521SOL     OW33241   4.556   1.772   1.189
 7521SOL    HW133242   4.493   1.706   1.148
 7521SOL    HW233243   4.644   1.728   1.207
 7522SOL     OW33244   2.587   7.812   3.098
 7522SOL    HW133245   2.640   7.882   3.049
 7522SOL    HW233246   2.598   7.724   3.051
 7523SOL     OW33247   3.143   9.086   3.723
 7523SOL    HW133248   3.220   9.028   3.752
 7523SOL    HW233249   3.064   9.028   3.703
 7524SOL     OW33250   0.965   2.584   0.075
 7524SOL    HW133251   1.059   2.612   0.094
 7524SOL    HW233252   0.908   2.665   0.061
 7525SOL     OW33253   0.118   6.361   4.312
 7525SOL    HW133254   0.057   6.430   4.272
 7525SOL    HW233255   0.068   6.275   4.323
 7526SOL     OW33256   1.923   1.163   2.505
 7526SOL    HW133257   1.972   1.077   2.490
 7526SOL    HW233258   1.907   1.208   2.417
 7527SOL     OW33259   7.919   8.990   1.284
 7527SOL    HW133260   7.992   8.926   1.304
 7527SOL    HW233261   7.902   9.049   1.364
 7528SOL     OW33262   9.167   4.827   4.405
 7528SOL    HW133263   9.068   4.837   4.395
 7528SOL    HW233264   9.189   4.804   4.499
 7529SOL     OW33265   3.801   1.630   0.162
 7529SOL    HW133266   3.808   1.531   0.163
 7529SOL    HW233267   3.730   1.658   0.098
 7530SOL     OW33268   1.686   3.570   1.359
 7530SOL    HW133269   1.746   3.538   1.285
 7530SOL    HW233270   1.741   3.615   1.429
 7531SOL     OW33271   2.004   1.930   1.569
 7531SOL    HW133272   2.102   1.947   1.579
 7531SOL    HW233273   1.953   2.007   1.606
 7532SOL     OW33274   1.692   9.086   3.852
 7532SOL    HW133275   1.723   9.002   3.896
 7532SOL    HW233276   1.728   9.089   3.758
 7533SOL     OW33277   2.249   4.439   2.983
 7533SOL    HW133278   2.338   4.405   3.012
 7533SOL    HW233279   2.186   4.439   3.061
 7534SOL     OW33280   8.125   4.170   2.269
 7534SOL    HW133281   8.157   4.262   2.288
 7534SOL    HW233282   8.072   4.169   2.185
 7535SOL     OW33283   8.810   4.235   3.663
 7535SOL    HW133284   8.713   4.258   3.654
 7535SOL    HW233285   8.830   4.153   3.611
 7536SOL     OW33286   5.590   9.183   3.741
 7536SOL    HW133287   5.687   9.208   3.747
 7536SOL    HW233288   5.562   9.184   3.645
 7537SOL     OW33289   4.556   6.875   3.703
 7537SOL    HW133290   4.459   6.900   3.708
 7537SOL    HW233291   4.593   6.868   3.795
 7538SOL     OW33292   2.572   6.314   1.390
 7538SOL    HW133293   2.474   6.319   1.372
 7538SOL    HW233294   2.600   6.218   1.397
 7539SOL     OW33295   9.345   0.575   4.122
 7539SOL    HW133296   9.394   0.545   4.203
 7539SOL    HW233297   9.330   0.497   4.061
 7540SOL     OW33298   8.527   0.186   1.471
 7540SOL    HW133299   8.460   0.128   1.424
 7540SOL    HW233300   8.483   0.232   1.548
 7541SOL     OW33301   6.024   8.180   2.516
 7541SOL    HW133302   5.995   8.129   2.435
 7541SOL    HW233303   5.978   8.269   2.517
 7542SOL     OW33304   3.301   1.176   3.406
 7542SOL    HW133305   3.273   1.131   3.490
 7542SOL    HW233306   3.277   1.273   3.411
 7543SOL     OW33307   4.229   8.912   2.544
 7543SOL    HW133308   4.194   8.819   2.555
 7543SOL    HW233309   4.272   8.922   2.455
 7544SOL     OW33310   4.221   6.915   2.231
 7544SOL    HW133311   4.247   6.835   2.177
 7544SOL    HW233312   4.221   6.891   2.328
 7545SOL     OW33313   3.060   1.568   1.845
 7545SOL    HW133314   2.999   1.543   1.770
 7545SOL    HW233315   3.143   1.610   1.807
 7546SOL     OW33316   2.643   2.935   1.831
 7546SOL    HW133317   2.718   2.936   1.765
 7546SOL    HW233318   2.599   3.025   1.832
 7547SOL     OW33319   2.915   4.964   0.985
 7547SOL    HW133320   2.896   5.049   1.034
 7547SOL    HW233321   2.899   4.886   1.046
 7548SOL     OW33322   7.818   5.991   4.405
 7548SOL    HW133323   7.881   6.069   4.394
 7548SOL    HW233324   7.741   6.002   4.342
 7549SOL     OW33325   1.101   4.830   1.941
 7549SOL    HW133326   1.011   4.868   1.959
 7549SOL    HW233327   1.172   4.895   1.968
 7550SOL     OW33328   4.126   5.255   1.555
 7550SOL    HW133329   4.157   5.224   1.645
 7550SOL    HW233330   4.046   5.201   1.528
 7551SOL     OW33331   9.949   6.144   4.297
 7551SOL    HW133332   9.869   6.188   4.258
 7551SOL    HW233333   9.921   6.061   4.346
 7552SOL     OW33334   6.720   0.327   0.756
 7552SOL    HW133335   6.801   0.376   0.726
 7552SOL    HW233336   6.716   0.238   0.712
 7553SOL     OW33337   4.659   9.968   2.460
 7553SOL    HW133338   4.646   9.979   2.558
 7553SOL    HW233339   4.751   9.999   2.434
 7554SOL     OW33340   1.970   3.441   4.304
 7554SOL    HW133341   2.039   3.512   4.291
 7554SOL    HW233342   1.943   3.437   4.400
 7555SOL     OW33343   8.963   1.237   2.099
 7555SOL    HW133344   8.879   1.234   2.045
 7555SOL    HW233345   8.953   1.178   2.179
 7556SOL     OW33346   0.904   7.274   3.023
 7556SOL    HW133347   1.000   7.247   3.029
 7556SOL    HW233348   0.895   7.372   3.041
 7557SOL     OW33349   3.016   1.992   0.064
 7557SOL    HW133350   2.978   2.081   0.089
 7557SOL    HW233351   2.957   1.949   5.629
 7558SOL     OW33352   3.671   5.927   1.000
 7558SOL    HW133353   3.761   5.885   1.007
 7558SOL    HW233354   3.614   5.872   0.939
 7559SOL     OW33355   9.391   7.318   2.125
 7559SOL    HW133356   9.361   7.399   2.076
 7559SOL    HW233357   9.411   7.341   2.220
 7560SOL     OW33358   0.178   1.385   0.894
 7560SOL    HW133359   0.145   1.479   0.904
 7560SOL    HW233360   0.277   1.386   0.884
 7561SOL     OW33361   7.647   7.433   2.536
 7561SOL    HW133362   7.731   7.473   2.572
 7561SOL    HW233363   7.568   7.480   2.576
 7562SOL     OW33364   4.246   1.708   2.284
 7562SOL    HW133365   4.291   1.750   2.206
 7562SOL    HW233366   4.281   1.615   2.297
 7563SOL     OW33367   1.489   5.138   0.999
 7563SOL    HW133368   1.504   5.217   0.940
 7563SOL    HW233369   1.398   5.144   1.041
 7564SOL     OW33370   1.018   7.716   0.763
 7564SOL    HW133371   0.945   7.664   0.809
 7564SOL    HW233372   1.063   7.657   0.696
 7565SOL     OW33373   2.491   0.843   1.621
 7565SOL    HW133374   2.568   0.779   1.615
 7565SOL    HW233375   2.525   0.934   1.645
 7566SOL     OW33376   4.450   2.647   0.354
 7566SOL    HW133377   4.397   2.642   0.438
 7566SOL    HW233378   4.396   2.694   0.283
 7567SOL     OW33379   2.170   5.727   4.223
 7567SOL    HW133380   2.230   5.789   4.172
 7567SOL    HW233381   2.107   5.781   4.279
 7568SOL     OW33382   9.792   7.001   0.178
 7568SOL    HW133383   9.815   6.915   0.132
 7568SOL    HW233384   9.873   7.060   0.181
 7569SOL     OW33385   3.617   3.715   1.705
 7569SOL    HW133386   3.681   3.767   1.648
 7569SOL    HW233387   3.627   3.743   1.800
 7570SOL     OW33388   8.247   2.055   4.183
 7570SOL    HW133389   8.195   1.987   4.233
 7570SOL    HW233390   8.278   2.017   4.095
 7571SOL     OW33391   1.302   7.903   1.657
 7571SOL    HW133392   1.277   7.930   1.564
 7571SOL    HW233393   1.327   7.985   1.710
 7572SOL     OW33394   9.082   3.513   1.265
 7572SOL    HW133395   9.096   3.527   1.363
 7572SOL    HW233396   8.986   3.494   1.247
 7573SOL     OW33397   8.449   7.897   2.106
 7573SOL    HW133398   8.372   7.840   2.137
 7573SOL    HW233399   8.422   7.948   2.025
 7574SOL     OW33400   2.025   4.570   0.510
 7574SOL    HW133401   2.107   4.594   0.458
 7574SOL    HW233402   2.021   4.471   0.523
 7575SOL     OW33403   9.365   3.615   0.505
 7575SOL    HW133404   9.356   3.708   0.469
 7575SOL    HW233405   9.421   3.561   0.442
 7576SOL     OW33406   9.823   4.183   0.991
 7576SOL    HW133407   9.734   4.138   1.002
 7576SOL    HW233408   9.821   4.240   0.908
 7577SOL     OW33409   4.340   4.756   1.966
 7577SOL    HW133410   4.376   4.697   1.894
 7577SOL    HW233411   4.284   4.828   1.925
 7578SOL     OW33412   5.351   9.940   1.398
 7578SOL    HW133413   5.315   9.995   1.473
 7578SOL    HW233414   5.341   9.843   1.419
 7579SOL     OW33415   7.680   0.819   1.703
 7579SOL    HW133416   7.722   0.897   1.658
 7579SOL    HW233417   7.621   0.851   1.777
 7580SOL     OW33418   9.350   6.676   0.293
 7580SOL    HW133419   9.274   6.730   0.257
 7580SOL    HW233420   9.316   6.588   0.327
 7581SOL     OW33421   0.867   4.481   2.441
 7581SOL    HW133422   0.846   4.516   2.350
 7581SOL    HW233423   0.926   4.401   2.433
 7582SOL     OW33424   3.408   1.721   2.876
 7582SOL    HW133425   3.357   1.803   2.850
 7582SOL    HW233426   3.428   1.667   2.795
 7583SOL     OW33427   0.203   5.500   2.193
 7583SOL    HW133428   0.124   5.552   2.161
 7583SOL    HW233429   0.173   5.412   2.229
 7584SOL     OW33430   9.556   2.006   2.696
 7584SOL    HW133431   9.633   1.991   2.633
 7584SOL    HW233432   9.591   2.033   2.786
 7585SOL     OW33433   7.648   7.468   3.532
 7585SOL    HW133434   7.713   7.479   3.457
 7585SOL    HW233435   7.575   7.405   3.504
 7586SOL     OW33436   9.984   7.973   3.348
 7586SOL    HW133437   0.075   7.937   3.325
 7586SOL    HW233438   9.936   7.905   3.404
 7587SOL     OW33439   0.139   5.717   0.577
 7587SOL    HW133440   0.120   5.808   0.615
 7587SOL    HW233441   0.126   5.648   0.648
 7588SOL     OW33442   3.090   2.326   0.965
 7588SOL    HW133443   3.064   2.274   1.047
 7588SOL    HW233444   3.044   2.415   0.967
 7589SOL     OW33445   0.308   6.506   0.659
 7589SOL    HW133446   0.374   6.512   0.734
 7589SOL    HW233447   0.329   6.427   0.603
 7590SOL     OW33448   3.231   3.734   4.010
 7590SOL    HW133449   3.308   3.798   4.009
 7590SOL    HW233450   3.265   3.641   3.992
 7591SOL     OW33451   4.061   0.108   2.177
 7591SOL    HW133452   4.005   0.191   2.182
 7591SOL    HW233453   4.101   0.102   2.085
 7592SOL     OW33454   0.221   6.991   0.830
 7592SOL    HW133455   0.233   6.947   0.919
 7592SOL    HW233456   0.133   7.038   0.827
 7593SOL     OW33457   1.533   1.913   2.205
 7593SOL    HW133458   1.447   1.961   2.188
 7593SOL    HW233459   1.558   1.923   2.301
 7594SOL     OW33460   1.174   9.569   3.756
 7594SOL    HW133461   1.234   9.537   3.830
 7594SOL    HW233462   1.085   9.522   3.764
 7595SOL     OW33463   2.811   1.530   4.217
 7595SOL    HW133464   2.828   1.612   4.163
 7595SOL    HW233465   2.723   1.539   4.265
 7596SOL     OW33466   2.874   1.704   0.685
 7596SOL    HW133467   2.941   1.778   0.686
 7596SOL    HW233468   2.887   1.648   0.603
 7597SOL     OW33469   0.060   6.928   3.495
 7597SOL    HW133470   0.059   6.859   3.423
 7597SOL    HW233471   9.966   6.955   3.518
 7598SOL     OW33472   9.061   7.704   2.573
 7598SOL    HW133473   8.986   7.705   2.507
 7598SOL    HW233474   9.079   7.797   2.604
 7599SOL     OW33475   4.378   0.019   1.275
 7599SOL    HW133476   4.452   0.031   1.341
 7599SOL    HW233477   4.293   9.997   1.324
 7600SOL     OW33478   0.159   6.364   0.858
 7600SOL    HW133479   0.066   6.340   0.832
 7600SOL    HW233480   0.201   6.421   0.787
 7601SOL     OW33481   8.092   9.392   4.322
 7601SOL    HW133482   8.061   9.302   4.291
 7601SOL    HW233483   8.014   9.454   4.332
 7602SOL     OW33484   9.654   8.604   4.140
 7602SOL    HW133485   9.658   8.506   4.160
 7602SOL    HW233486   9.562   8.638   4.157
 7603SOL     OW33487   1.889   6.921   1.792
 7603SOL    HW133488   1.979   6.879   1.779
 7603SOL    HW233489   1.900   7.009   1.839
 7604SOL     OW33490   1.704   6.228   2.678
 7604SOL    HW133491   1.701   6.326   2.700
 7604SOL    HW233492   1.683   6.175   2.760
 7605SOL     OW33493   8.483   9.244   1.513
 7605SOL    HW133494   8.540   9.162   1.513
 7605SOL    HW233495   8.497   9.295   1.428
 7606SOL     OW33496   2.272   4.003   0.479
 7606SOL    HW133497   2.256   4.102   0.483
 7606SOL    HW233498   2.317   3.974   0.564
 7607SOL     OW33499   2.595   5.490   3.308
 7607SOL    HW133500   2.686   5.530   3.296
 7607SOL    HW233501   2.534   5.556   3.351
 7608SOL     OW33502   1.087   6.995   0.415
 7608SOL    HW133503   1.080   6.915   0.354
 7608SOL    HW233504   1.042   7.073   0.372
 7609SOL     OW33505   1.340   8.299   0.494
 7609SOL    HW133506   1.357   8.255   0.582
 7609SOL    HW233507   1.311   8.393   0.508
 7610SOL     OW33508   4.602   7.721   2.195
 7610SOL    HW133509   4.607   7.769   2.107
 7610SOL    HW233510   4.611   7.787   2.269
 7611SOL     OW33511   9.706   7.371   3.847
 7611SOL    HW133512   9.730   7.463   3.877
 7611SOL    HW233513   9.767   7.305   3.890
 7612SOL     OW33514   2.369   8.479   1.799
 7612SOL    HW133515   2.453   8.492   1.851
 7612SOL    HW233516   2.303   8.429   1.856
 7613SOL     OW33517   0.742   4.747   3.474
 7613SOL    HW133518   0.726   4.728   3.378
 7613SOL    HW233519   0.734   4.663   3.527
 7614SOL     OW33520   4.206   8.318   2.720
 7614SOL    HW133521   4.190   8.411   2.754
 7614SOL    HW233522   4.291   8.316   2.668
 7615SOL     OW33523   8.711   7.866   0.633
 7615SOL    HW133524   8.803   7.876   0.671
 7615SOL    HW233525   8.685   7.769   0.634
 7616SOL     OW33526   3.438   1.708   0.119
 7616SOL    HW133527   3.410   1.617   0.149
 7616SOL    HW233528   3.360   1.770   0.124
 7617SOL     OW33529   8.670   8.010   1.483
 7617SOL    HW133530   8.640   7.928   1.434
 7617SOL    HW233531   8.760   7.994   1.523
 7618SOL     OW33532   3.157   8.657   3.536
 7618SOL    HW133533   3.210   8.573   3.546
 7618SOL    HW233534   3.122   8.685   3.625
 7619SOL     OW33535   0.361   1.046   1.066
 7619SOL    HW133536   0.459   1.027   1.055
 7619SOL    HW233537   0.349   1.124   1.127
 7620SOL     OW33538   7.665   2.059   2.029
 7620SOL    HW133539   7.749   2.026   2.073
 7620SOL    HW233540   7.597   2.080   2.099
 7621SOL     OW33541   5.918   8.765   1.405
 7621SOL    HW133542   5.864   8.716   1.337
 7621SOL    HW233543   5.857   8.814   1.467
 7622SOL     OW33544   9.462   0.443   4.328
 7622SOL    HW133545   9.514   0.377   4.274
 7622SOL    HW233546   9.378   0.400   4.360
 7623SOL     OW33547   3.657   1.478   1.854
 7623SOL    HW133548   3.682   1.574   1.865
 7623SOL    HW233549   3.581   1.470   1.790
 7624SOL     OW33550   0.999   5.220   4.347
 7624SOL    HW133551   0.996   5.317   4.372
 7624SOL    HW233552   0.968   5.209   4.253
 7625SOL     OW33553   1.638   2.399   1.832
 7625SOL    HW133554   1.721   2.401   1.776
 7625SOL    HW233555   1.649   2.459   1.911
 7626SOL     OW33556   4.083   7.978   1.236
 7626SOL    HW133557   4.163   7.950   1.182
 7626SOL    HW233558   4.078   7.923   1.319
 7627SOL     OW33559   8.931   2.947   0.238
 7627SOL    HW133560   8.984   2.990   0.311
 7627SOL    HW233561   8.993   2.894   0.179
 7628SOL     OW33562   7.022   8.649   3.149
 7628SOL    HW133563   7.104   8.701   3.174
 7628SOL    HW233564   7.037   8.552   3.166
 7629SOL     OW33565   4.659   8.405   3.937
 7629SOL    HW133566   4.596   8.359   3.875
 7629SOL    HW233567   4.648   8.504   3.929
 7630SOL     OW33568   0.466   7.930   0.616
 7630SOL    HW133569   0.537   7.910   0.684
 7630SOL    HW233570   0.509   7.968   0.534
 7631SOL     OW33571   5.100   2.824   1.485
 7631SOL    HW133572   5.110   2.873   1.399
 7631SOL    HW233573   5.087   2.889   1.560
 7632SOL     OW33574   2.455   4.382   1.336
 7632SOL    HW133575   2.393   4.418   1.266
 7632SOL    HW233576   2.411   4.306   1.384
 7633SOL     OW33577   7.099   6.753   2.625
 7633SOL    HW133578   7.192   6.767   2.592
 7633SOL    HW233579   7.046   6.703   2.555
 7634SOL     OW33580   3.426   9.533   0.858
 7634SOL    HW133581   3.500   9.569   0.914
 7634SOL    HW233582   3.339   9.546   0.906
 7635SOL     OW33583   5.499   8.149   2.365
 7635SOL    HW133584   5.569   8.174   2.432
 7635SOL    HW233585   5.497   8.050   2.354
 7636SOL     OW33586   8.775   2.003   2.082
 7636SOL    HW133587   8.835   1.922   2.081
 7636SOL    HW233588   8.765   2.038   1.989
 7637SOL     OW33589   9.875   5.581   3.565
 7637SOL    HW133590   9.968   5.615   3.580
 7637SOL    HW233591   9.819   5.601   3.646
 7638SOL     OW33592   3.544   3.118   3.317
 7638SOL    HW133593   3.543   3.113   3.218
 7638SOL    HW233594   3.538   3.214   3.346
 7639SOL     OW33595   2.790   7.852   1.572
 7639SOL    HW133596   2.697   7.823   1.592
 7639SOL    HW233597   2.820   7.919   1.641
 7640SOL     OW33598   0.380   5.555   3.733
 7640SOL    HW133599   0.364   5.458   3.751
 7640SOL    HW233600   0.476   5.569   3.708
 7641SOL     OW33601   8.904   4.741   4.057
 7641SOL    HW133602   8.910   4.830   4.103
 7641SOL    HW233603   8.869   4.753   3.964
 7642SOL     OW33604   8.936   8.184   0.803
 7642SOL    HW133605   8.978   8.211   0.716
 7642SOL    HW233606   8.957   8.252   0.873
 7643SOL     OW33607   9.777   5.161   3.296
 7643SOL    HW133608   9.827   5.079   3.324
 7643SOL    HW233609   9.733   5.202   3.375
 7644SOL     OW33610   9.138   1.004   2.076
 7644SOL    HW133611   9.082   0.995   2.159
 7644SOL    HW233612   9.105   1.082   2.023
 7645SOL     OW33613   1.981   8.476   2.809
 7645SOL    HW133614   1.984   8.376   2.818
 7645SOL    HW233615   1.994   8.518   2.899
 7646SOL     OW33616   9.620   4.148   2.764
 7646SOL    HW133617   9.694   4.196   2.810
 7646SOL    HW233618   9.546   4.131   2.829
 7647SOL     OW33619   1.456   1.430   4.367
 7647SOL    HW133620   1.549   1.405   4.340
 7647SOL    HW233621   1.395   1.352   4.353
 7648SOL     OW33622   2.624   3.191   0.467
 7648SOL    HW133623   2.590   3.131   0.394
 7648SOL    HW233624   2.717   3.220   0.445
 7649SOL     OW33625   1.498   5.189   4.105
 7649SOL    HW133626   1.504   5.252   4.028
 7649SOL    HW233627   1.530   5.233   4.188
 7650SOL     OW33628   3.328   3.650   3.388
 7650SOL    HW133629   3.316   3.720   3.459
 7650SOL    HW233630   3.271   3.571   3.410
 7651SOL     OW33631   0.146   5.202   1.915
 7651SOL    HW133632   0.214   5.198   1.989
 7651SOL    HW233633   0.164   5.282   1.857
 7652SOL     OW33634   5.749   9.560   2.653
 7652SOL    HW133635   5.826   9.497   2.650
 7652SOL    HW233636   5.664   9.509   2.668
 7653SOL     OW33637   1.762   7.876   2.486
 7653SOL    HW133638   1.858   7.881   2.457
 7653SOL    HW233639   1.742   7.953   2.547
 7654SOL     OW33640   3.512   8.695   3.849
 7654SOL    HW133641   3.524   8.703   3.750
 7654SOL    HW233642   3.569   8.621   3.884
 7655SOL     OW33643   4.739   0.474   1.959
 7655SOL    HW133644   4.829   0.437   1.936
 7655SOL    HW233645   4.744   0.524   2.045
 7656SOL     OW33646   7.022   0.074   2.076
 7656SOL    HW133647   7.050   0.163   2.039
 7656SOL    HW233648   7.078   0.052   2.156
 7657SOL     OW33649   4.603   2.459   3.830
 7657SOL    HW133650   4.647   2.541   3.793
 7657SOL    HW233651   4.518   2.485   3.877
 7658SOL     OW33652   4.444   6.705   3.510
 7658SOL    HW133653   4.490   6.752   3.585
 7658SOL    HW233654   4.366   6.759   3.480
 7659SOL     OW33655   2.863   7.407   0.251
 7659SOL    HW133656   2.890   7.461   0.171
 7659SOL    HW233657   2.865   7.465   0.332
 7660SOL     OW33658   0.616   7.746   2.316
 7660SOL    HW133659   0.603   7.651   2.288
 7660SOL    HW233660   0.528   7.789   2.333
 7661SOL     OW33661   8.382   7.128   0.754
 7661SOL    HW133662   8.409   7.225   0.749
 7661SOL    HW233663   8.291   7.117   0.712
 7662SOL     OW33664   2.175   1.160   1.707
 7662SOL    HW133665   2.150   1.097   1.781
 7662SOL    HW233666   2.222   1.110   1.635
 7663SOL     OW33667   3.926   5.093   1.471
 7663SOL    HW133668   3.931   5.054   1.379
 7663SOL    HW233669   3.834   5.081   1.508
 7664SOL     OW33670   3.183   6.917   1.929
 7664SOL    HW133671   3.152   6.838   1.983
 7664SOL    HW233672   3.141   6.914   1.839
 7665SOL     OW33673   9.081   9.264   3.470
 7665SOL    HW133674   9.039   9.353   3.455
 7665SOL    HW233675   9.130   9.236   3.387
 7666SOL     OW33676   8.249   9.144   4.132
 7666SOL    HW133677   8.242   9.210   4.057
 7666SOL    HW233678   8.158   9.128   4.171
 7667SOL     OW33679   1.853   9.636   1.064
 7667SOL    HW133680   1.884   9.549   1.105
 7667SOL    HW233681   1.755   9.646   1.080
 7668SOL     OW33682   0.431   3.793   0.865
 7668SOL    HW133683   0.383   3.875   0.897
 7668SOL    HW233684   0.450   3.802   0.767
 7669SOL     OW33685   7.877   6.659   3.682
 7669SOL    HW133686   7.797   6.605   3.707
 7669SOL    HW233687   7.866   6.694   3.589
 7670SOL     OW33688   7.539   0.482   0.941
 7670SOL    HW133689   7.502   0.550   1.004
 7670SOL    HW233690   7.565   0.400   0.992
 7671SOL     OW33691   2.274   9.702   1.104
 7671SOL    HW133692   2.194   9.760   1.122
 7671SOL    HW233693   2.256   9.610   1.138
 7672SOL     OW33694   1.607   9.807   1.950
 7672SOL    HW133695   1.598   9.903   1.923
 7672SOL    HW233696   1.517   9.763   1.947
 7673SOL     OW33697   9.240   8.774   0.327
 7673SOL    HW133698   9.162   8.789   0.387
 7673SOL    HW233699   9.208   8.739   0.239
 7674SOL     OW33700   6.427   0.223   3.878
 7674SOL    HW133701   6.381   0.238   3.790
 7674SOL    HW233702   6.359   0.221   3.951
 7675SOL     OW33703   1.646   5.906   2.364
 7675SOL    HW133704   1.606   5.989   2.401
 7675SOL    HW233705   1.742   5.921   2.343
 7676SOL     OW33706   9.238   2.517   2.313
 7676SOL    HW133707   9.152   2.522   2.263
 7676SOL    HW233708   9.310   2.485   2.252
 7677SOL     OW33709   5.059   6.638   2.686
 7677SOL    HW133710   5.093   6.660   2.777
 7677SOL    HW233711   4.963   6.665   2.679
 7678SOL     OW33712   4.427   2.006   0.830
 7678SOL    HW133713   4.388   1.917   0.853
 7678SOL    HW233714   4.471   2.045   0.911
 7679SOL     OW33715   8.732   7.441   2.654
 7679SOL    HW133716   8.689   7.460   2.742
 7679SOL    HW233717   8.674   7.478   2.581
 7680SOL     OW33718   6.841   8.714   1.987
 7680SOL    HW133719   6.767   8.723   1.920
 7680SOL    HW233720   6.810   8.749   2.075
 7681SOL     OW33721   3.087   0.364   0.198
 7681SOL    HW133722   3.091   0.430   0.273
 7681SOL    HW233723   3.087   0.271   0.236
 7682SOL     OW33724   1.359   6.265   3.172
 7682SOL    HW133725   1.414   6.347   3.159
 7682SOL    HW233726   1.297   6.278   3.250
 7683SOL     OW33727   0.981   0.955   1.332
 7683SOL    HW133728   0.977   1.052   1.356
 7683SOL    HW233729   1.049   0.942   1.259
 7684SOL     OW33730   1.563   3.838   2.635
 7684SOL    HW133731   1.577   3.924   2.684
 7684SOL    HW233732   1.575   3.854   2.537
 7685SOL     OW33733   9.373   6.249   1.562
 7685SOL    HW133734   9.354   6.269   1.466
 7685SOL    HW233735   9.443   6.311   1.596
 7686SOL     OW33736   4.103   1.920   1.064
 7686SOL    HW133737   4.125   1.998   1.006
 7686SOL    HW233738   4.127   1.835   1.016
 7687SOL     OW33739   4.814   6.976   1.606
 7687SOL    HW133740   4.715   6.971   1.602
 7687SOL    HW233741   4.849   6.901   1.662
 7688SOL     OW33742   8.316   7.389   1.383
 7688SOL    HW133743   8.242   7.330   1.352
 7688SOL    HW233744   8.395   7.334   1.409
 7689SOL     OW33745   9.829   7.162   3.987
 7689SOL    HW133746   9.789   7.178   4.077
 7689SOL    HW233747   9.910   7.104   3.996
 7690SOL     OW33748   0.756   3.435   2.891
 7690SOL    HW133749   0.727   3.340   2.879
 7690SOL    HW233750   0.680   3.496   2.869
 7691SOL     OW33751   0.707   2.107   1.228
 7691SOL    HW133752   0.744   2.200   1.229
 7691SOL    HW233753   0.724   2.066   1.139
 7692SOL     OW33754   7.820   1.583   0.307
 7692SOL    HW133755   7.857   1.628   0.226
 7692SOL    HW233756   7.750   1.642   0.349
 7693SOL     OW33757   1.582   6.716   0.205
 7693SOL    HW133758   1.490   6.684   0.182
 7693SOL    HW233759   1.585   6.816   0.195
 7694SOL     OW33760   7.467   8.977   1.138
 7694SOL    HW133761   7.547   8.931   1.177
 7694SOL    HW233762   7.415   9.021   1.212
 7695SOL     OW33763   6.494   9.689   1.492
 7695SOL    HW133764   6.581   9.661   1.531
 7695SOL    HW233765   6.510   9.748   1.413
 7696SOL     OW33766   1.115   6.856   2.140
 7696SOL    HW133767   1.083   6.903   2.222
 7696SOL    HW233768   1.071   6.896   2.059
 7697SOL     OW33769   7.835   4.631   0.752
 7697SOL    HW133770   7.819   4.704   0.819
 7697SOL    HW233771   7.835   4.670   0.660
 7698SOL     OW33772   1.264   8.314   1.958
 7698SOL    HW133773   1.246   8.304   2.056
 7698SOL    HW233774   1.200   8.380   1.919
 7699SOL     OW33775   4.673   0.530   4.134
 7699SOL    HW133776   4.604   0.600   4.155
 7699SOL    HW233777   4.630   0.440   4.134
 7700SOL     OW33778   9.973   9.642   1.453
 7700SOL    HW133779   0.032   9.562   1.444
 7700SOL    HW233780   9.893   9.632   1.394
 7701SOL     OW33781   4.549   4.339   0.976
 7701SOL    HW133782   4.527   4.377   0.887
 7701SOL    HW233783   4.634   4.379   1.010
 7702SOL     OW33784   2.323   9.712   3.113
 7702SOL    HW133785   2.361   9.775   3.181
 7702SOL    HW233786   2.392   9.644   3.089
 7703SOL     OW33787   9.904   6.134   1.540
 7703SOL    HW133788   9.886   6.222   1.497
 7703SOL    HW233789   9.961   6.078   1.480
 7704SOL     OW33790   7.624   5.991   2.924
 7704SOL    HW133791   7.628   6.061   2.853
 7704SOL    HW233792   7.535   5.994   2.968
 7705SOL     OW33793   4.932   9.801   2.578
 7705SOL    HW133794   5.003   9.732   2.587
 7705SOL    HW233795   4.847   9.767   2.620
 7706SOL     OW33796   7.289   6.948   3.153
 7706SOL    HW133797   7.193   6.976   3.151
 7706SOL    HW233798   7.329   6.959   3.062
 7707SOL     OW33799   8.308   1.497   3.862
 7707SOL    HW133800   8.337   1.564   3.931
 7707SOL    HW233801   8.214   1.516   3.835
 7708SOL     OW33802   0.901   8.770   1.284
 7708SOL    HW133803   0.815   8.791   1.238
 7708SOL    HW233804   0.960   8.718   1.223
 7709SOL     OW33805   0.634   2.730   2.260
 7709SOL    HW133806   0.538   2.717   2.285
 7709SOL    HW233807   0.690   2.731   2.343
 7710SOL     OW33808   4.176   1.857   1.321
 7710SOL    HW133809   4.210   1.763   1.324
 7710SOL    HW233810   4.145   1.878   1.228
 7711SOL     OW33811   9.017   6.916   3.249
 7711SOL    HW133812   9.040   7.004   3.289
 7711SOL    HW233813   8.919   6.913   3.230
 7712SOL     OW33814   1.825   0.109   3.065
 7712SOL    HW133815   1.919   0.124   3.034
 7712SOL    HW233816   1.779   0.047   3.001
 7713SOL     OW33817   9.560   9.760   2.260
 7713SOL    HW133818   9.572   9.702   2.180
 7713SOL    HW233819   9.560   9.856   2.232
 7714SOL     OW33820   3.609   7.785   0.680
 7714SOL    HW133821   3.583   7.826   0.768
 7714SOL    HW233822   3.555   7.827   0.607
 7715SOL     OW33823   0.904   8.996   0.740
 7715SOL    HW133824   0.964   8.924   0.704
 7715SOL    HW233825   0.927   9.014   0.836
 7716SOL     OW33826   2.753   0.961   0.118
 7716SOL    HW133827   2.830   1.019   0.092
 7716SOL    HW233828   2.782   0.899   0.191
 7717SOL     OW33829   0.737   9.427   3.589
 7717SOL    HW133830   0.663   9.487   3.556
 7717SOL    HW233831   0.699   9.339   3.615
 7718SOL     OW33832   3.348   8.050   3.454
 7718SOL    HW133833   3.311   7.979   3.394
 7718SOL    HW233834   3.447   8.054   3.444
 7719SOL     OW33835   1.878   0.373   0.367
 7719SOL    HW133836   1.905   0.283   0.334
 7719SOL    HW233837   1.958   0.423   0.399
 7720SOL     OW33838   2.425   5.658   3.438
 7720SOL    HW133839   2.389   5.750   3.456
 7720SOL    HW233840   2.386   5.594   3.504
 7721SOL     OW33841   8.700   7.812   2.009
 7721SOL    HW133842   8.616   7.848   2.049
 7721SOL    HW233843   8.699   7.827   1.910
 7722SOL     OW33844   0.519   2.044   3.094
 7722SOL    HW133845   0.493   2.043   2.997
 7722SOL    HW233846   0.593   1.979   3.109
 7723SOL     OW33847   1.098   8.514   0.331
 7723SOL    HW133848   1.151   8.530   0.414
 7723SOL    HW233849   1.161   8.511   0.253
 7724SOL     OW33850   9.668   8.972   3.185
 7724SOL    HW133851   9.754   9.023   3.188
 7724SOL    HW233852   9.599   9.019   3.240
 7725SOL     OW33853   3.161   6.476   0.167
 7725SOL    HW133854   3.244   6.516   0.127
 7725SOL    HW233855   3.152   6.505   0.262
 7726SOL     OW33856   9.754   7.898   2.946
 7726SOL    HW133857   9.784   7.945   3.029
 7726SOL    HW233858   9.683   7.953   2.901
 7727SOL     OW33859   3.018   0.679   3.096
 7727SOL    HW133860   2.959   0.710   3.171
 7727SOL    HW233861   3.113   0.673   3.129
 7728SOL     OW33862   8.843   4.687   1.692
 7728SOL    HW133863   8.881   4.607   1.738
 7728SOL    HW233864   8.917   4.740   1.651
 7729SOL     OW33865   3.174   0.394   1.417
 7729SOL    HW133866   3.260   0.392   1.468
 7729SOL    HW233867   3.100   0.359   1.474
 7730SOL     OW33868   9.728   7.083   0.938
 7730SOL    HW133869   9.709   7.050   1.031
 7730SOL    HW233870   9.642   7.090   0.887
 7731SOL     OW33871   4.289   8.748   0.749
 7731SOL    HW133872   4.293   8.846   0.765
 7731SOL    HW233873   4.200   8.723   0.712
 7732SOL     OW33874   4.071   3.883   0.368
 7732SOL    HW133875   4.070   3.936   0.453
 7732SOL    HW233876   3.982   3.892   0.322
 7733SOL     OW33877   3.216   0.007   0.168
 7733SOL    HW133878   3.159   0.049   0.239
 7733SOL    HW233879   3.302   0.056   0.160
 7734SOL     OW33880   8.393   3.638   0.765
 7734SOL    HW133881   8.364   3.707   0.699
 7734SOL    HW233882   8.320   3.622   0.831
 7735SOL     OW33883   7.766   9.872   3.985
 7735SOL    HW133884   7.729   9.779   3.987
 7735SOL    HW233885   7.841   9.881   4.050
 7736SOL     OW33886   2.134   2.818   0.751
 7736SOL    HW133887   2.131   2.918   0.755
 7736SOL    HW233888   2.110   2.780   0.840
 7737SOL     OW33889   1.691   8.254   3.247
 7737SOL    HW133890   1.633   8.295   3.176
 7737SOL    HW233891   1.777   8.224   3.205
 7738SOL     OW33892   6.194   1.748   3.414
 7738SOL    HW133893   6.242   1.832   3.439
 7738SOL    HW233894   6.242   1.705   3.337
 7739SOL     OW33895   6.644   8.704   1.792
 7739SOL    HW133896   6.589   8.738   1.716
 7739SOL    HW233897   6.702   8.629   1.760
 7740SOL     OW33898   6.346   8.624   2.622
 7740SOL    HW133899   6.317   8.675   2.542
 7740SOL    HW233900   6.389   8.538   2.594
 7741SOL     OW33901   9.547   0.380   3.266
 7741SOL    HW133902   9.456   0.406   3.300
 7741SOL    HW233903   9.609   0.368   3.343
 7742SOL     OW33904   5.196   0.032   0.899
 7742SOL    HW133905   5.239   0.117   0.930
 7742SOL    HW233906   5.223   9.957   0.960
 7743SOL     OW33907   3.448   3.430   3.161
 7743SOL    HW133908   3.355   3.394   3.152
 7743SOL    HW233909   3.475   3.428   3.257
 7744SOL     OW33910   9.802   6.270   3.963
 7744SOL    HW133911   9.780   6.367   3.958
 7744SOL    HW233912   9.761   6.230   4.045
 7745SOL     OW33913   3.874   7.114   3.175
 7745SOL    HW133914   3.807   7.114   3.101
 7745SOL    HW233915   3.960   7.074   3.142
 7746SOL     OW33916   4.306   6.125   0.925
 7746SOL    HW133917   4.298   6.167   1.015
 7746SOL    HW233918   4.378   6.172   0.873
 7747SOL     OW33919   2.174   3.094   3.064
 7747SOL    HW133920   2.267   3.116   3.033
 7747SOL    HW233921   2.122   3.054   2.989
 7748SOL     OW33922   7.454   2.480   0.177
 7748SOL    HW133923   7.428   2.390   0.141
 7748SOL    HW233924   7.526   2.519   0.119
 7749SOL     OW33925   4.028   6.126   0.960
 7749SOL    HW133926   4.124   6.121   0.935
 7749SOL    HW233927   3.981   6.192   0.901
 7750SOL     OW33928   4.422   2.742   3.114
 7750SOL    HW133929   4.393   2.801   3.039
 7750SOL    HW233930   4.348   2.677   3.135
 7751SOL     OW33931   0.890   9.640   3.013
 7751SOL    HW133932   0.808   9.632   2.957
 7751SOL    HW233933   0.884   9.723   3.069
 7752SOL     OW33934   0.628   7.453   1.244
 7752SOL    HW133935   0.529   7.454   1.258
 7752SOL    HW233936   0.648   7.427   1.150
 7753SOL     OW33937   1.138   2.916   0.208
 7753SOL    HW133938   1.175   2.832   0.170
 7753SOL    HW233939   1.045   2.899   0.242
 7754SOL     OW33940   0.423   4.589   0.867
 7754SOL    HW133941   0.365   4.509   0.879
 7754SOL    HW233942   0.433   4.637   0.954
 7755SOL     OW33943   3.596   8.477   0.911
 7755SOL    HW133944   3.498   8.495   0.908
 7755SOL    HW233945   3.628   8.476   1.006
 7756SOL     OW33946   1.389   0.090   2.050
 7756SOL    HW133947   1.474   0.088   1.998
 7756SOL    HW233948   1.348   0.181   2.043
 7757SOL     OW33949   1.316   3.982   1.307
 7757SOL    HW133950   1.377   3.903   1.318
 7757SOL    HW233951   1.319   4.013   1.212
 7758SOL     OW33952   8.282   9.802   4.142
 7758SOL    HW133953   8.338   9.820   4.061
 7758SOL    HW233954   8.252   9.706   4.141
 7759SOL     OW33955   4.403   8.583   3.518
 7759SOL    HW133956   4.495   8.620   3.529
 7759SOL    HW233957   4.337   8.658   3.515
 7760SOL     OW33958   3.168   1.067   3.995
 7760SOL    HW133959   3.236   1.002   4.027
 7760SOL    HW233960   3.077   1.027   4.003
 7761SOL     OW33961   4.360   1.190   2.291
 7761SOL    HW133962   4.387   1.226   2.202
 7761SOL    HW233963   4.422   1.117   2.318
 7762SOL     OW33964   4.424   3.285   0.727
 7762SOL    HW133965   4.431   3.384   0.714
 7762SOL    HW233966   4.516   3.245   0.734
 7763SOL     OW33967   8.452   1.752   2.779
 7763SOL    HW133968   8.460   1.699   2.695
 7763SOL    HW233969   8.433   1.848   2.757
 7764SOL     OW33970   4.741   2.179   2.367
 7764SOL    HW133971   4.788   2.166   2.455
 7764SOL    HW233972   4.651   2.137   2.371
 7765SOL     OW33973   8.677   5.204   2.295
 7765SOL    HW133974   8.688   5.106   2.306
 7765SOL    HW233975   8.703   5.230   2.201
 7766SOL     OW33976   3.175   7.307   2.534
 7766SOL    HW133977   3.136   7.226   2.490
 7766SOL    HW233978   3.187   7.379   2.467
 7767SOL     OW33979   0.674   9.623   2.841
 7767SOL    HW133980   0.677   9.716   2.804
 7767SOL    HW233981   0.637   9.561   2.772
 7768SOL     OW33982   2.254   2.850   2.673
 7768SOL    HW133983   2.335   2.812   2.719
 7768SOL    HW233984   2.201   2.903   2.739
 7769SOL     OW33985   8.550   2.588   3.963
 7769SOL    HW133986   8.523   2.644   4.041
 7769SOL    HW233987   8.647   2.564   3.972
 7770SOL     OW33988   7.073   7.752   2.323
 7770SOL    HW133989   7.080   7.719   2.417
 7770SOL    HW233990   7.162   7.787   2.294
 7771SOL     OW33991   2.948   5.797   1.965
 7771SOL    HW133992   2.970   5.809   1.868
 7771SOL    HW233993   2.863   5.745   1.974
 7772SOL     OW33994   7.692   9.005   2.553
 7772SOL    HW133995   7.674   8.931   2.489
 7772SOL    HW233996   7.668   9.092   2.511
 7773SOL     OW33997   8.496   6.194   3.874
 7773SOL    HW133998   8.536   6.264   3.933
 7773SOL    HW233999   8.443   6.237   3.801
 7774SOL     OW34000   4.289   2.089   2.267
 7774SOL    HW134001   4.255   2.040   2.188
 7774SOL    HW234002   4.341   2.169   2.237
 7775SOL     OW34003   8.716   2.520   1.632
 7775SOL    HW134004   8.687   2.561   1.719
 7775SOL    HW234005   8.763   2.589   1.577
 7776SOL     OW34006   3.230   2.152   0.795
 7776SOL    HW134007   3.172   2.215   0.847
 7776SOL    HW234008   3.177   2.073   0.767
 7777SOL     OW34009   2.861   5.086   1.395
 7777SOL    HW134010   2.885   4.990   1.407
 7777SOL    HW234011   2.915   5.142   1.458
 7778SOL     OW34012   9.587   1.008   3.984
 7778SOL    HW134013   9.622   0.995   3.891
 7778SOL    HW234014   9.530   0.930   4.009
 7779SOL     OW34015   3.087   4.708   0.838
 7779SOL    HW134016   3.083   4.658   0.924
 7779SOL    HW234017   3.067   4.804   0.854
 7780SOL     OW34018   9.438   9.870   3.829
 7780SOL    HW134019   9.432   9.858   3.730
 7780SOL    HW234020   9.524   9.917   3.852
 7781SOL     OW34021   5.342   9.009   3.216
 7781SOL    HW134022   5.415   9.025   3.149
 7781SOL    HW234023   5.268   8.959   3.172
 7782SOL     OW34024   0.288   4.725   0.672
 7782SOL    HW134025   0.335   4.674   0.743
 7782SOL    HW234026   0.354   4.783   0.624
 7783SOL     OW34027   8.650   8.725   0.285
 7783SOL    HW134028   8.573   8.726   0.221
 7783SOL    HW234029   8.656   8.814   0.331
 7784SOL     OW34030   8.029   7.267   3.849
 7784SOL    HW134031   8.055   7.181   3.803
 7784SOL    HW234032   7.945   7.302   3.809
 7785SOL     OW34033   2.850   4.255   0.804
 7785SOL    HW134034   2.932   4.198   0.801
 7785SOL    HW234035   2.874   4.350   0.786
 7786SOL     OW34036   4.734   3.207   0.478
 7786SOL    HW134037   4.656   3.181   0.422
 7786SOL    HW234038   4.819   3.179   0.433
 7787SOL     OW34039   1.787   1.968   3.213
 7787SOL    HW134040   1.762   1.873   3.192
 7787SOL    HW234041   1.881   1.985   3.185
 7788SOL     OW34042   9.664   2.964   2.624
 7788SOL    HW134043   9.619   3.032   2.566
 7788SOL    HW234044   9.633   2.872   2.597
 7789SOL     OW34045   2.869   7.793   2.828
 7789SOL    HW134046   2.827   7.870   2.876
 7789SOL    HW234047   2.804   7.754   2.764
 7790SOL     OW34048   1.810   0.927   2.027
 7790SOL    HW134049   1.732   0.876   1.991
 7790SOL    HW234050   1.777   0.999   2.088
 7791SOL     OW34051   0.933   1.642   3.643
 7791SOL    HW134052   0.890   1.703   3.577
 7791SOL    HW234053   1.021   1.680   3.671
 7792SOL     OW34054   8.157   7.042   3.677
 7792SOL    HW134055   8.211   6.957   3.677
 7792SOL    HW234056   8.215   7.118   3.648
 7793SOL     OW34057   5.081   9.034   1.930
 7793SOL    HW134058   5.169   9.077   1.906
 7793SOL    HW234059   5.097   8.961   1.997
 7794SOL     OW34060   0.245   7.776   0.562
 7794SOL    HW134061   0.324   7.831   0.588
 7794SOL    HW234062   0.174   7.836   0.525
 7795SOL     OW34063   2.084   7.696   3.346
 7795SOL    HW134064   2.097   7.676   3.442
 7795SOL    HW234065   2.155   7.651   3.292
 7796SOL     OW34066   7.317   3.589   0.508
 7796SOL    HW134067   7.325   3.567   0.411
 7796SOL    HW234068   7.398   3.639   0.538
 7797SOL     OW34069   0.269   8.207   0.946
 7797SOL    HW134070   0.265   8.302   0.975
 7797SOL    HW234071   0.222   8.149   1.013
 7798SOL     OW34072   3.204   3.749   0.520
 7798SOL    HW134073   3.148   3.680   0.566
 7798SOL    HW234074   3.293   3.755   0.565
 7799SOL     OW34075   9.070   1.417   1.429
 7799SOL    HW134076   9.017   1.346   1.475
 7799SOL    HW234077   9.012   1.497   1.413
 7800SOL     OW34078   1.278   2.140   3.551
 7800SOL    HW134079   1.311   2.222   3.504
 7800SOL    HW234080   1.356   2.091   3.591
 7801SOL     OW34081   1.394   9.997   0.449
 7801SOL    HW134082   1.409   9.911   0.497
 7801SOL    HW234083   1.462   0.007   0.377
 7802SOL     OW34084   8.303   1.623   0.388
 7802SOL    HW134085   8.272   1.709   0.347
 7802SOL    HW234086   8.243   1.600   0.465
 7803SOL     OW34087   7.402   0.559   2.883
 7803SOL    HW134088   7.339   0.482   2.871
 7803SOL    HW234089   7.392   0.623   2.806
 7804SOL     OW34090   1.964   8.325   0.306
 7804SOL    HW134091   1.902   8.283   0.373
 7804SOL    HW234092   2.059   8.306   0.332
 7805SOL     OW34093   4.404   8.617   2.935
 7805SOL    HW134094   4.392   8.711   2.969
 7805SOL    HW234095   4.470   8.569   2.992
 7806SOL     OW34096   1.014   7.648   3.390
 7806SOL    HW134097   0.922   7.654   3.350
 7806SOL    HW234098   1.078   7.699   3.333
 7807SOL     OW34099   3.215   9.340   3.798
 7807SOL    HW134100   3.315   9.343   3.791
 7807SOL    HW234101   3.183   9.249   3.771
 7808SOL     OW34102   3.291   1.403   2.545
 7808SOL    HW134103   3.277   1.352   2.630
 7808SOL    HW234104   3.341   1.347   2.479
 7809SOL     OW34105   9.568   1.111   2.178
 7809SOL    HW134106   9.518   1.025   2.170
 7809SOL    HW234107   9.554   1.165   2.095
 7810SOL     OW34108   1.839   0.126   0.197
 7810SOL    HW134109   1.887   0.045   0.165
 7810SOL    HW234110   1.830   0.191   0.122
 7811SOL     OW34111   8.850   8.196   2.145
 7811SOL    HW134112   8.930   8.253   2.129
 7811SOL    HW234113   8.875   8.117   2.202
 7812SOL     OW34114   0.058   9.155   4.136
 7812SOL    HW134115   0.157   9.149   4.125
 7812SOL    HW234116   0.026   9.244   4.103
 7813SOL     OW34117   2.655   8.348   2.176
 7813SOL    HW134118   2.713   8.339   2.257
 7813SOL    HW234119   2.662   8.265   2.120
 7814SOL     OW34120   1.499   0.736   2.754
 7814SOL    HW134121   1.466   0.748   2.660
 7814SOL    HW234122   1.591   0.697   2.752
 7815SOL     OW34123   6.087   9.054   3.225
 7815SOL    HW134124   6.182   9.060   3.195
 7815SOL    HW234125   6.034   9.127   3.181
 7816SOL     OW34126   4.367   5.787   1.633
 7816SOL    HW134127   4.359   5.860   1.565
 7816SOL    HW234128   4.422   5.820   1.710
 7817SOL     OW34129   2.266   7.099   4.218
 7817SOL    HW134130   2.340   7.034   4.199
 7817SOL    HW234131   2.274   7.178   4.157
 7818SOL     OW34132   5.560   7.141   3.516
 7818SOL    HW134133   5.638   7.131   3.456
 7818SOL    HW234134   5.491   7.200   3.473
 7819SOL     OW34135   0.990   5.510   3.874
 7819SOL    HW134136   0.917   5.574   3.896
 7819SOL    HW234137   1.045   5.493   3.956
 7820SOL     OW34138   5.927   1.057   1.410
 7820SOL    HW134139   5.930   1.049   1.310
 7820SOL    HW234140   6.013   1.022   1.448
 7821SOL     OW34141   3.450   3.395   2.312
 7821SOL    HW134142   3.521   3.332   2.280
 7821SOL    HW234143   3.474   3.489   2.285
 7822SOL     OW34144   8.106   8.800   1.345
 7822SOL    HW134145   8.131   8.780   1.250
 7822SOL    HW234146   8.189   8.821   1.397
 7823SOL     OW34147   0.563   8.547   3.393
 7823SOL    HW134148   0.655   8.556   3.432
 7823SOL    HW234149   0.499   8.598   3.450
 7824SOL     OW34150   1.571   5.859   1.833
 7824SOL    HW134151   1.631   5.881   1.756
 7824SOL    HW234152   1.614   5.889   1.918
 7825SOL     OW34153   8.250   2.402   0.305
 7825SOL    HW134154   8.251   2.491   0.350
 7825SOL    HW234155   8.308   2.339   0.356
 7826SOL     OW34156   2.736   0.711   2.028
 7826SOL    HW134157   2.675   0.642   1.989
 7826SOL    HW234158   2.766   0.683   2.119
 7827SOL     OW34159   1.690   0.239   3.591
 7827SOL    HW134160   1.670   0.161   3.651
 7827SOL    HW234161   1.767   0.291   3.627
 7828SOL     OW34162   2.869   3.236   2.839
 7828SOL    HW134163   2.906   3.182   2.915
 7828SOL    HW234164   2.934   3.235   2.763
 7829SOL     OW34165   9.699   7.888   0.571
 7829SOL    HW134166   9.619   7.947   0.581
 7829SOL    HW234167   9.710   7.863   0.475
 7830SOL     OW34168   1.062   0.064   2.623
 7830SOL    HW134169   1.009   0.035   2.703
 7830SOL    HW234170   1.098   0.156   2.640
 7831SOL     OW34171   6.290   0.077   2.046
 7831SOL    HW134172   6.328   0.165   2.076
 7831SOL    HW234173   6.360   0.006   2.055
 7832SOL     OW34174   8.776   5.654   0.474
 7832SOL    HW134175   8.816   5.742   0.499
 7832SOL    HW234176   8.808   5.584   0.538
 7833SOL     OW34177   0.882   0.215   2.036
 7833SOL    HW134178   0.904   0.121   2.063
 7833SOL    HW234179   0.941   0.278   2.086
 7834SOL     OW34180   7.383   7.026   4.228
 7834SOL    HW134181   7.308   6.976   4.186
 7834SOL    HW234182   7.469   6.975   4.216
 7835SOL     OW34183   7.808   0.478   0.144
 7835SOL    HW134184   7.716   0.494   0.182
 7835SOL    HW234185   7.805   0.398   0.084
 7836SOL     OW34186   1.943   8.885   3.247
 7836SOL    HW134187   1.953   8.889   3.147
 7836SOL    HW234188   1.847   8.867   3.269
 7837SOL     OW34189   2.972   0.578   1.674
 7837SOL    HW134190   2.974   0.478   1.671
 7837SOL    HW234191   2.984   0.608   1.769
 7838SOL     OW34192   0.051   4.210   2.088
 7838SOL    HW134193   9.965   4.258   2.103
 7838SOL    HW234194   0.053   4.127   2.144
 7839SOL     OW34195   3.673   1.463   4.184
 7839SOL    HW134196   3.593   1.498   4.137
 7839SOL    HW234197   3.645   1.408   4.263
 7840SOL     OW34198   8.314   2.663   4.429
 7840SOL    HW134199   8.362   2.666   4.516
 7840SOL    HW234200   8.231   2.607   4.439
 7841SOL     OW34201   2.073   5.025   3.582
 7841SOL    HW134202   2.096   5.116   3.617
 7841SOL    HW234203   2.029   5.034   3.493
 7842SOL     OW34204   4.618   8.520   3.078
 7842SOL    HW134205   4.657   8.535   3.170
 7842SOL    HW234206   4.680   8.559   3.010
 7843SOL     OW34207   5.239   6.904   3.130
 7843SOL    HW134208   5.161   6.859   3.174
 7843SOL    HW234209   5.225   7.003   3.131
 7844SOL     OW34210   4.131   5.571   1.874
 7844SOL    HW134211   4.074   5.646   1.841
 7844SOL    HW234212   4.076   5.488   1.879
 7845SOL     OW34213   3.299   6.910   1.352
 7845SOL    HW134214   3.242   6.844   1.401
 7845SOL    HW234215   3.257   7.001   1.358
 7846SOL     OW34216   4.758   2.302   0.867
 7846SOL    HW134217   4.807   2.338   0.788
 7846SOL    HW234218   4.793   2.344   0.950
 7847SOL     OW34219   8.012   3.637   1.155
 7847SOL    HW134220   8.069   3.643   1.073
 7847SOL    HW234221   7.919   3.666   1.134
 7848SOL     OW34222   0.534   5.746   3.236
 7848SOL    HW134223   0.453   5.703   3.278
 7848SOL    HW234224   0.508   5.834   3.198
 7849SOL     OW34225   1.853   7.368   2.448
 7849SOL    HW134226   1.843   7.455   2.497
 7849SOL    HW234227   1.822   7.293   2.507
 7850SOL     OW34228   1.188   6.457   2.409
 7850SOL    HW134229   1.150   6.509   2.332
 7850SOL    HW234230   1.146   6.366   2.411
 7851SOL     OW34231   0.200   0.502   3.694
 7851SOL    HW134232   0.278   0.472   3.640
 7851SOL    HW234233   0.125   0.527   3.633
 7852SOL     OW34234   5.003   7.174   2.106
 7852SOL    HW134235   4.953   7.252   2.143
 7852SOL    HW234236   4.956   7.089   2.133
 7853SOL     OW34237   9.605   0.611   0.899
 7853SOL    HW134238   9.588   0.703   0.863
 7853SOL    HW234239   9.582   0.543   0.831
 7854SOL     OW34240   7.901   2.153   1.099
 7854SOL    HW134241   7.814   2.170   1.054
 7854SOL    HW234242   7.885   2.113   1.189
 7855SOL     OW34243   6.691   6.949   2.567
 7855SOL    HW134244   6.715   6.891   2.489
 7855SOL    HW234245   6.769   6.957   2.628
 7856SOL     OW34246   3.310   3.507   1.914
 7856SOL    HW134247   3.400   3.487   1.875
 7856SOL    HW234248   3.263   3.421   1.934
 7857SOL     OW34249   7.761   9.781   1.101
 7857SOL    HW134250   7.811   9.797   1.185
 7857SOL    HW234251   7.784   9.690   1.065
 7858SOL     OW34252   7.179   8.475   4.275
 7858SOL    HW134253   7.169   8.409   4.201
 7858SOL    HW234254   7.089   8.501   4.309
 7859SOL     OW34255   4.368   6.094   1.779
 7859SOL    HW134256   4.425   6.015   1.804
 7859SOL    HW234257   4.409   6.141   1.702
 7860SOL     OW34258   0.378   1.837   4.059
 7860SOL    HW134259   0.380   1.744   4.096
 7860SOL    HW234260   0.441   1.843   3.982
 7861SOL     OW34261   3.655   3.634   3.376
 7861SOL    HW134262   3.602   3.678   3.303
 7861SOL    HW234263   3.636   3.680   3.462
 7862SOL     OW34264   2.241   1.745   1.306
 7862SOL    HW134265   2.276   1.776   1.394
 7862SOL    HW234266   2.313   1.696   1.257
 7863SOL     OW34267   8.253   8.147   2.545
 7863SOL    HW134268   8.301   8.115   2.464
 7863SOL    HW234269   8.297   8.230   2.579
 7864SOL     OW34270   6.840   0.706   1.785
 7864SOL    HW134271   6.821   0.656   1.869
 7864SOL    HW234272   6.842   0.642   1.708
 7865SOL     OW34273   6.181   8.900   2.125
 7865SOL    HW134274   6.267   8.950   2.133
 7865SOL    HW234275   6.199   8.803   2.113
 7866SOL     OW34276   9.641   5.958   2.467
 7866SOL    HW134277   9.625   6.049   2.504
 7866SOL    HW234278   9.731   5.925   2.496
 7867SOL     OW34279   0.923   8.970   1.981
 7867SOL    HW134280   0.909   8.893   2.043
 7867SOL    HW234281   0.952   8.935   1.892
 7868SOL     OW34282   1.904   7.294   2.184
 7868SOL    HW134283   1.888   7.320   2.280
 7868SOL    HW234284   1.874   7.368   2.124
 7869SOL     OW34285   1.813   7.620   0.933
 7869SOL    HW134286   1.791   7.641   1.028
 7869SOL    HW234287   1.781   7.694   0.874
 7870SOL     OW34288   6.073   8.321   1.798
 7870SOL    HW134289   6.066   8.357   1.891
 7870SOL    HW234290   6.074   8.221   1.801
 7871SOL     OW34291   2.198   1.881   0.815
 7871SOL    HW134292   2.298   1.878   0.821
 7871SOL    HW234293   2.165   1.804   0.761
 7872SOL     OW34294   5.590   7.697   2.026
 7872SOL    HW134295   5.690   7.689   2.020
 7872SOL    HW234296   5.561   7.678   2.120
 7873SOL     OW34297   8.682   9.106   3.244
 7873SOL    HW134298   8.631   9.021   3.233
 7873SOL    HW234299   8.753   9.094   3.313
 7874SOL     OW34300   9.935   2.930   2.662
 7874SOL    HW134301   9.837   2.943   2.644
 7874SOL    HW234302   9.953   2.834   2.683
 7875SOL     OW34303   9.056   0.088   3.260
 7875SOL    HW134304   9.132   0.053   3.314
 7875SOL    HW234305   9.091   0.130   3.176
 7876SOL     OW34306   3.464   6.761   1.193
 7876SOL    HW134307   3.443   6.759   1.095
 7876SOL    HW234308   3.401   6.823   1.240
 7877SOL     OW34309   3.619   7.499   0.197
 7877SOL    HW134310   3.668   7.581   0.168
 7877SOL    HW234311   3.669   7.454   0.272
 7878SOL     OW34312   7.974   2.517   1.359
 7878SOL    HW134313   7.989   2.483   1.266
 7878SOL    HW234314   8.013   2.452   1.425
 7879SOL     OW34315   4.133   9.501   2.749
 7879SOL    HW134316   4.070   9.575   2.773
 7879SOL    HW234317   4.225   9.538   2.734
 7880SOL     OW34318   0.826   2.546   2.149
 7880SOL    HW134319   0.865   2.499   2.228
 7880SOL    HW234320   0.753   2.608   2.180
 7881SOL     OW34321   3.711   9.305   2.470
 7881SOL    HW134322   3.800   9.318   2.512
 7881SOL    HW234323   3.722   9.295   2.371
 7882SOL     OW34324   9.583   3.074   1.357
 7882SOL    HW134325   9.668   3.125   1.345
 7882SOL    HW234326   9.538   3.062   1.268
 7883SOL     OW34327   1.101   6.236   0.100
 7883SOL    HW134328   1.189   6.238   0.054
 7883SOL    HW234329   1.060   6.145   0.090
 7884SOL     OW34330   3.088   5.762   3.335
 7884SOL    HW134331   3.148   5.704   3.391
 7884SOL    HW234332   3.136   5.788   3.251
 7885SOL     OW34333   1.602   4.483   1.694
 7885SOL    HW134334   1.530   4.482   1.625
 7885SOL    HW234335   1.679   4.538   1.660
 7886SOL     OW34336   0.512   7.325   2.961
 7886SOL    HW134337   0.564   7.242   2.980
 7886SOL    HW234338   0.483   7.367   3.047
 7887SOL     OW34339   2.829   8.834   0.877
 7887SOL    HW134340   2.834   8.825   0.777
 7887SOL    HW234341   2.735   8.855   0.903
 7888SOL     OW34342   0.080   8.394   3.508
 7888SOL    HW134343   9.985   8.425   3.500
 7888SOL    HW234344   0.128   8.452   3.574
 7889SOL     OW34345   4.238   8.095   3.138
 7889SOL    HW134346   4.271   8.172   3.192
 7889SOL    HW234347   4.259   8.109   3.041
 7890SOL     OW34348   3.800   3.819   2.193
 7890SOL    HW134349   3.829   3.752   2.262
 7890SOL    HW234350   3.843   3.907   2.212
 7891SOL     OW34351   0.111   0.938   2.517
 7891SOL    HW134352   0.182   0.880   2.556
 7891SOL    HW234353   0.141   1.034   2.520
 7892SOL     OW34354   2.578   8.890   0.967
 7892SOL    HW134355   2.540   8.976   1.000
 7892SOL    HW234356   2.510   8.842   0.912
 7893SOL     OW34357   3.920   4.995   1.208
 7893SOL    HW134358   3.873   5.082   1.190
 7893SOL    HW234359   3.933   4.946   1.122
 7894SOL     OW34360   8.784   9.988   0.822
 7894SOL    HW134361   8.851   0.062   0.826
 7894SOL    HW234362   8.737   9.980   0.910
 7895SOL     OW34363   3.688   1.295   2.308
 7895SOL    HW134364   3.745   1.371   2.339
 7895SOL    HW234365   3.659   1.311   2.213
 7896SOL     OW34366   2.596   4.112   2.502
 7896SOL    HW134367   2.633   4.026   2.538
 7896SOL    HW234368   2.540   4.157   2.572
 7897SOL     OW34369   2.546   8.924   3.455
 7897SOL    HW134370   2.480   8.959   3.389
 7897SOL    HW234371   2.509   8.931   3.547
 7898SOL     OW34372   2.989   6.657   2.874
 7898SOL    HW134373   3.057   6.593   2.838
 7898SOL    HW234374   2.931   6.689   2.800
 7899SOL     OW34375   2.433   1.897   0.397
 7899SOL    HW134376   2.527   1.918   0.423
 7899SOL    HW234377   2.434   1.843   0.312
 7900SOL     OW34378   2.688   8.301   3.686
 7900SOL    HW134379   2.664   8.277   3.592
 7900SOL    HW234380   2.674   8.399   3.700
 7901SOL     OW34381   1.883   7.054   2.342
 7901SOL    HW134382   1.889   7.127   2.274
 7901SOL    HW234383   1.932   7.080   2.425
 7902SOL     OW34384   1.326   6.739   2.007
 7902SOL    HW134385   1.379   6.811   1.963
 7902SOL    HW234386   1.257   6.779   2.066
 7903SOL     OW34387   9.909   1.403   1.723
 7903SOL    HW134388   9.887   1.332   1.656
 7903SOL    HW234389   0.007   1.400   1.745
 7904SOL     OW34390   4.402   9.675   2.707
 7904SOL    HW134391   4.393   9.623   2.623
 7904SOL    HW234392   4.355   9.763   2.697
 7905SOL     OW34393   2.576   2.485   3.162
 7905SOL    HW134394   2.662   2.506   3.207
 7905SOL    HW234395   2.507   2.462   3.231
 7906SOL     OW34396   8.298   6.228   0.932
 7906SOL    HW134397   8.393   6.201   0.915
 7906SOL    HW234398   8.243   6.208   0.851
 7907SOL     OW34399   8.247   9.839   2.426
 7907SOL    HW134400   8.208   9.931   2.423
 7907SOL    HW234401   8.246   9.799   2.334
 7908SOL     OW34402   6.351   8.411   3.795
 7908SOL    HW134403   6.293   8.457   3.862
 7908SOL    HW234404   6.336   8.452   3.705
 7909SOL     OW34405   6.699   1.499   3.613
 7909SOL    HW134406   6.659   1.538   3.529
 7909SOL    HW234407   6.626   1.472   3.675
 7910SOL     OW34408   0.579   0.516   0.874
 7910SOL    HW134409   0.657   0.472   0.830
 7910SOL    HW234410   0.494   0.482   0.833
 7911SOL     OW34411   1.668   3.844   1.138
 7911SOL    HW134412   1.602   3.834   1.213
 7911SOL    HW234413   1.621   3.825   1.051
 7912SOL     OW34414   2.348   6.896   2.599
 7912SOL    HW134415   2.250   6.889   2.616
 7912SOL    HW234416   2.378   6.815   2.548
 7913SOL     OW34417   7.040   7.230   1.899
 7913SOL    HW134418   6.966   7.297   1.896
 7913SOL    HW234419   7.112   7.257   1.835
 7914SOL     OW34420   3.847   9.637   0.721
 7914SOL    HW134421   3.776   9.621   0.652
 7914SOL    HW234422   3.846   9.734   0.747
 7915SOL     OW34423   3.125   6.715   0.999
 7915SOL    HW134424   3.061   6.740   1.071
 7915SOL    HW234425   3.080   6.654   0.934
 7916SOL     OW34426   8.701   1.183   0.172
 7916SOL    HW134427   8.611   1.152   0.139
 7916SOL    HW234428   8.711   1.159   0.268
 7917SOL     OW34429   2.580   7.886   3.794
 7917SOL    HW134430   2.563   7.926   3.884
 7917SOL    HW234431   2.586   7.787   3.803
 7918SOL     OW34432   0.025   1.350   0.128
 7918SOL    HW134433   9.961   1.408   0.078
 7918SOL    HW234434   0.080   1.406   0.190
 7919SOL     OW34435   8.531   3.986   1.566
 7919SOL    HW134436   8.487   3.934   1.640
 7919SOL    HW234437   8.504   4.082   1.572
 7920SOL     OW34438   0.031   2.118   0.057
 7920SOL    HW134439   0.040   2.115   5.591
 7920SOL    HW234440   0.113   2.078   0.099
 7921SOL     OW34441   0.200   2.231   4.118
 7921SOL    HW134442   0.181   2.139   4.153
 7921SOL    HW234443   0.227   2.290   4.194
 7922SOL     OW34444   0.386   3.128   2.750
 7922SOL    HW134445   0.358   3.187   2.674
 7922SOL    HW234446   0.381   3.033   2.722
 7923SOL     OW34447   5.118   3.665   0.774
 7923SOL    HW134448   5.037   3.713   0.808
 7923SOL    HW234449   5.177   3.729   0.725
 7924SOL     OW34450   5.514   7.672   1.628
 7924SOL    HW134451   5.567   7.752   1.656
 7924SOL    HW234452   5.484   7.622   1.709
 7925SOL     OW34453   8.708   6.922   1.727
 7925SOL    HW134454   8.664   6.870   1.801
 7925SOL    HW234455   8.799   6.885   1.709
 7926SOL     OW34456   5.042   8.202   4.106
 7926SOL    HW134457   5.007   8.284   4.150
 7926SOL    HW234458   5.093   8.147   4.172
 7927SOL     OW34459   7.723   3.282   4.317
 7927SOL    HW134460   7.633   3.263   4.357
 7927SOL    HW234461   7.719   3.368   4.266
 7928SOL     OW34462   3.424   5.115   2.464
 7928SOL    HW134463   3.344   5.165   2.431
 7928SOL    HW234464   3.435   5.128   2.562
 7929SOL     OW34465   0.229   4.561   1.982
 7929SOL    HW134466   0.250   4.657   2.002
 7929SOL    HW234467   0.314   4.512   1.962
 7930SOL     OW34468   1.995   6.840   2.207
 7930SOL    HW134469   1.932   6.817   2.133
 7930SOL    HW234470   1.953   6.907   2.268
 7931SOL     OW34471   0.461   2.675   0.518
 7931SOL    HW134472   0.527   2.705   0.587
 7931SOL    HW234473   0.372   2.718   0.536
 7932SOL     OW34474   7.903   3.027   1.733
 7932SOL    HW134475   7.878   2.997   1.825
 7932SOL    HW234476   7.995   2.994   1.712
 7933SOL     OW34477   2.143   9.931   3.789
 7933SOL    HW134478   2.046   9.953   3.791
 7933SOL    HW234479   2.190   9.994   3.727
 7934SOL     OW34480   5.104   7.979   2.750
 7934SOL    HW134481   5.104   7.884   2.719
 7934SOL    HW234482   5.196   8.017   2.743
 7935SOL     OW34483   9.575   7.331   3.527
 7935SOL    HW134484   9.536   7.386   3.454
 7935SOL    HW234485   9.637   7.387   3.582
 7936SOL     OW34486   5.846   8.566   2.921
 7936SOL    HW134487   5.881   8.660   2.927
 7936SOL    HW234488   5.923   8.503   2.915
 7937SOL     OW34489   8.908   9.834   3.986
 7937SOL    HW134490   8.947   9.912   4.036
 7937SOL    HW234491   8.855   9.778   4.049
 7938SOL     OW34492   5.132   1.289   1.829
 7938SOL    HW134493   5.107   1.382   1.854
 7938SOL    HW234494   5.066   1.252   1.764
 7939SOL     OW34495   7.837   5.069   3.949
 7939SOL    HW134496   7.877   4.986   3.987
 7939SOL    HW234497   7.828   5.138   4.020
 7940SOL     OW34498   8.982   1.812   4.327
 7940SOL    HW134499   9.029   1.813   4.239
 7940SOL    HW234500   8.972   1.717   4.357
 7941SOL     OW34501   3.863   2.855   0.557
 7941SOL    HW134502   3.885   2.928   0.621
 7941SOL    HW234503   3.774   2.873   0.515
 7942SOL     OW34504   1.498   1.997   3.893
 7942SOL    HW134505   1.560   1.920   3.907
 7942SOL    HW234506   1.482   2.009   3.795
 7943SOL     OW34507   9.289   9.403   2.758
 7943SOL    HW134508   9.341   9.351   2.689
 7943SOL    HW234509   9.273   9.345   2.838
 7944SOL     OW34510   5.760   8.814   2.332
 7944SOL    HW134511   5.739   8.748   2.260
 7944SOL    HW234512   5.708   8.791   2.414
 7945SOL     OW34513   1.921   9.801   3.101
 7945SOL    HW134514   1.890   9.894   3.121
 7945SOL    HW234515   1.997   9.805   3.036
 7946SOL     OW34516   8.775   0.614   2.318
 7946SOL    HW134517   8.798   0.659   2.404
 7946SOL    HW234518   8.769   0.515   2.333
 7947SOL     OW34519   7.763   3.912   0.423
 7947SOL    HW134520   7.838   3.927   0.359
 7947SOL    HW234521   7.680   3.954   0.387
 7948SOL     OW34522   2.036   1.010   1.235
 7948SOL    HW134523   1.969   0.986   1.305
 7948SOL    HW234524   2.029   1.108   1.215
 7949SOL     OW34525   0.907   0.402   2.729
 7949SOL    HW134526   0.822   0.366   2.690
 7949SOL    HW234527   0.910   0.381   2.827
 7950SOL     OW34528   0.443   6.321   2.820
 7950SOL    HW134529   0.479   6.245   2.874
 7950SOL    HW234530   0.365   6.290   2.767
 7951SOL     OW34531   3.626   3.054   0.221
 7951SOL    HW134532   3.620   2.991   0.299
 7951SOL    HW234533   3.535   3.089   0.199
 7952SOL     OW34534   1.108   2.997   4.203
 7952SOL    HW134535   1.188   2.960   4.156
 7952SOL    HW234536   1.103   3.096   4.188
 7953SOL     OW34537   6.189   9.207   2.384
 7953SOL    HW134538   6.282   9.206   2.422
 7953SOL    HW234539   6.125   9.168   2.450
 7954SOL     OW34540   8.662   9.031   1.545
 7954SOL    HW134541   8.650   9.025   1.645
 7954SOL    HW234542   8.708   8.949   1.512
 7955SOL     OW34543   1.876   5.532   0.591
 7955SOL    HW134544   1.913   5.521   0.499
 7955SOL    HW234545   1.941   5.493   0.657
 7956SOL     OW34546   0.763   6.063   1.441
 7956SOL    HW134547   0.818   6.004   1.381
 7956SOL    HW234548   0.753   6.019   1.531
 7957SOL     OW34549   3.732   7.394   2.693
 7957SOL    HW134550   3.739   7.446   2.608
 7957SOL    HW234551   3.717   7.457   2.769
 7958SOL     OW34552   2.810   9.471   2.748
 7958SOL    HW134553   2.711   9.483   2.737
 7958SOL    HW234554   2.829   9.439   2.841
 7959SOL     OW34555   1.250   7.444   1.188
 7959SOL    HW134556   1.287   7.422   1.098
 7959SOL    HW234557   1.321   7.486   1.244
 7960SOL     OW34558   9.756   0.515   1.690
 7960SOL    HW134559   9.735   0.613   1.698
 7960SOL    HW234560   9.817   0.501   1.613
 7961SOL     OW34561   3.958   4.557   3.815
 7961SOL    HW134562   3.942   4.566   3.717
 7961SOL    HW234563   3.925   4.639   3.862
 7962SOL     OW34564   8.427   4.208   0.915
 7962SOL    HW134565   8.423   4.300   0.876
 7962SOL    HW234566   8.370   4.204   0.997
 7963SOL     OW34567   0.553   8.875   1.952
 7963SOL    HW134568   0.462   8.904   1.922
 7963SOL    HW234569   0.616   8.953   1.946
 7964SOL     OW34570   8.109   2.437   4.036
 7964SOL    HW134571   8.207   2.421   4.046
 7964SOL    HW234572   8.088   2.453   3.940
 7965SOL     OW34573   9.736   3.377   2.026
 7965SOL    HW134574   9.665   3.312   2.000
 7965SOL    HW234575   9.772   3.353   2.116
 7966SOL     OW34576   6.656   8.859   3.078
 7966SOL    HW134577   6.715   8.808   3.141
 7966SOL    HW234578   6.660   8.817   2.988
 7967SOL     OW34579   4.559   6.772   1.965
 7967SOL    HW134580   4.524   6.744   1.876
 7967SOL    HW234581   4.585   6.869   1.961
 7968SOL     OW34582   4.268   8.441   4.057
 7968SOL    HW134583   4.297   8.527   4.015
 7968SOL    HW234584   4.244   8.457   4.153
 7969SOL     OW34585   0.140   1.990   0.643
 7969SOL    HW134586   0.212   2.023   0.581
 7969SOL    HW234587   0.123   1.893   0.627
 7970SOL     OW34588   1.257   0.751   0.122
 7970SOL    HW134589   1.274   0.850   0.125
 7970SOL    HW234590   1.169   0.731   0.165
 7971SOL     OW34591   9.412   9.427   3.077
 7971SOL    HW134592   9.441   9.416   3.172
 7971SOL    HW234593   9.369   9.343   3.045
 7972SOL     OW34594   2.843   3.191   3.578
 7972SOL    HW134595   2.780   3.155   3.511
 7972SOL    HW234596   2.826   3.289   3.591
 7973SOL     OW34597   1.592   4.433   2.725
 7973SOL    HW134598   1.538   4.381   2.791
 7973SOL    HW234599   1.565   4.407   2.632
 7974SOL     OW34600   1.299   4.729   3.548
 7974SOL    HW134601   1.386   4.775   3.536
 7974SOL    HW234602   1.246   4.736   3.463
 7975SOL     OW34603   9.451   2.242   2.331
 7975SOL    HW134604   9.502   2.263   2.414
 7975SOL    HW234605   9.356   2.223   2.354
 7976SOL     OW34606   4.451   4.113   3.709
 7976SOL    HW134607   4.480   4.054   3.635
 7976SOL    HW234608   4.354   4.137   3.697
 7977SOL     OW34609   4.072   3.141   0.381
 7977SOL    HW134610   3.994   3.135   0.319
 7977SOL    HW234611   4.078   3.234   0.419
 7978SOL     OW34612   4.254   0.710   4.165
 7978SOL    HW134613   4.272   0.722   4.067
 7978SOL    HW234614   4.338   0.725   4.217
 7979SOL     OW34615   0.900   6.938   3.497
 7979SOL    HW134616   0.834   6.867   3.471
 7979SOL    HW234617   0.918   6.997   3.418
 7980SOL     OW34618   3.499   8.745   3.167
 7980SOL    HW134619   3.447   8.756   3.252
 7980SOL    HW234620   3.436   8.724   3.092
 7981SOL     OW34621   0.383   8.053   1.285
 7981SOL    HW134622   0.453   8.038   1.355
 7981SOL    HW234623   0.366   8.151   1.276
 7982SOL     OW34624   3.555   3.646   4.041
 7982SOL    HW134625   3.603   3.697   3.970
 7982SOL    HW234626   3.479   3.595   4.000
 7983SOL     OW34627   9.896   0.757   1.919
 7983SOL    HW134628   9.988   0.728   1.943
 7983SOL    HW234629   9.861   0.819   1.990
 7984SOL     OW34630   0.478   6.633   3.516
 7984SOL    HW134631   0.388   6.626   3.559
 7984SOL    HW234632   0.537   6.560   3.550
 7985SOL     OW34633   8.870   1.407   0.727
 7985SOL    HW134634   8.845   1.343   0.800
 7985SOL    HW234635   8.915   1.357   0.653
 7986SOL     OW34636   3.633   1.755   3.284
 7986SOL    HW134637   3.656   1.669   3.329
 7986SOL    HW234638   3.666   1.832   3.339
 7987SOL     OW34639   1.786   7.822   3.533
 7987SOL    HW134640   1.867   7.800   3.587
 7987SOL    HW234641   1.728   7.740   3.526
 7988SOL     OW34642   9.503   6.157   3.376
 7988SOL    HW134643   9.576   6.225   3.385
 7988SOL    HW234644   9.532   6.084   3.315
 7989SOL     OW34645   0.435   4.023   2.260
 7989SOL    HW134646   0.375   3.944   2.254
 7989SOL    HW234647   0.524   3.995   2.294
 7990SOL     OW34648   8.185   4.951   4.393
 7990SOL    HW134649   8.116   4.997   4.337
 7990SOL    HW234650   8.269   5.006   4.393
 7991SOL     OW34651   3.394   9.943   1.622
 7991SOL    HW134652   3.304   9.938   1.666
 7991SOL    HW234653   3.382   9.944   1.523
 7992SOL     OW34654   3.563   6.538   2.512
 7992SOL    HW134655   3.571   6.624   2.461
 7992SOL    HW234656   3.507   6.474   2.461
 7993SOL     OW34657   1.117   1.430   3.043
 7993SOL    HW134658   1.097   1.527   3.031
 7993SOL    HW234659   1.139   1.388   2.955
 7994SOL     OW34660   2.321   8.380   3.661
 7994SOL    HW134661   2.312   8.438   3.579
 7994SOL    HW234662   2.355   8.436   3.736
 7995SOL     OW34663   3.712   4.621   4.086
 7995SOL    HW134664   3.675   4.666   4.168
 7995SOL    HW234665   3.647   4.551   4.055
 7996SOL     OW34666   0.381   7.145   1.332
 7996SOL    HW134667   0.357   7.226   1.386
 7996SOL    HW234668   0.433   7.081   1.389
 7997SOL     OW34669   2.612   5.639   0.946
 7997SOL    HW134670   2.645   5.548   0.923
 7997SOL    HW234671   2.631   5.702   0.871
 7998SOL     OW34672   6.027   9.305   2.195
 7998SOL    HW134673   5.956   9.238   2.171
 7998SOL    HW234674   6.086   9.268   2.266
 7999SOL     OW34675   1.749   2.961   1.654
 7999SOL    HW134676   1.806   2.972   1.736
 7999SOL    HW234677   1.787   3.016   1.580
 8000SOL     OW34678   3.770   4.154   4.191
 8000SOL    HW134679   3.839   4.167   4.121
 8000SOL    HW234680   3.786   4.068   4.239
 8001SOL     OW34681   8.451   3.255   4.225
 8001SOL    HW134682   8.387   3.303   4.286
 8001SOL    HW234683   8.544   3.268   4.258
 8002SOL     OW34684   7.962   9.479   3.047
 8002SOL    HW134685   7.946   9.383   3.071
 8002SOL    HW234686   8.036   9.484   2.981
 8003SOL     OW34687   4.535   2.175   3.356
 8003SOL    HW134688   4.527   2.207   3.450
 8003SOL    HW234689   4.476   2.229   3.297
 8004SOL     OW34690   0.763   2.918   1.012
 8004SOL    HW134691   0.677   2.894   1.056
 8004SOL    HW234692   0.750   2.998   0.953
 8005SOL     OW34693   4.967   3.142   0.350
 8005SOL    HW134694   4.989   3.058   0.299
 8005SOL    HW234695   5.042   3.163   0.413
 8006SOL     OW34696   6.992   8.760   2.644
 8006SOL    HW134697   6.909   8.811   2.621
 8006SOL    HW234698   7.017   8.700   2.568
 8007SOL     OW34699   9.896   1.877   3.863
 8007SOL    HW134700   9.857   1.797   3.908
 8007SOL    HW234701   9.840   1.957   3.882
 8008SOL     OW34702   1.479   1.152   1.174
 8008SOL    HW134703   1.460   1.090   1.098
 8008SOL    HW234704   1.394   1.179   1.218
 8009SOL     OW34705   7.777   8.007   1.800
 8009SOL    HW134706   7.867   7.966   1.790
 8009SOL    HW234707   7.739   7.986   1.890
 8010SOL     OW34708   4.825   4.735   0.064
 8010SOL    HW134709   4.799   4.792   5.619
 8010SOL    HW234710   4.864   4.793   0.135
 8011SOL     OW34711   2.714   9.145   4.107
 8011SOL    HW134712   2.748   9.238   4.123
 8011SOL    HW234713   2.635   9.129   4.166
 8012SOL     OW34714   3.106   9.953   0.861
 8012SOL    HW134715   3.206   9.957   0.870
 8012SOL    HW234716   3.082   9.926   0.767
 8013SOL     OW34717   2.863   6.128   4.335
 8013SOL    HW134718   2.878   6.144   4.432
 8013SOL    HW234719   2.837   6.033   4.320
 8014SOL     OW34720   8.777   0.044   0.449
 8014SOL    HW134721   8.858   0.042   0.507
 8014SOL    HW234722   8.777   9.965   0.388
 8015SOL     OW34723   7.153   1.262   1.196
 8015SOL    HW134724   7.110   1.209   1.123
 8015SOL    HW234725   7.101   1.250   1.281
 8016SOL     OW34726   7.635   8.520   1.490
 8016SOL    HW134727   7.720   8.565   1.464
 8016SOL    HW234728   7.635   8.503   1.589
 8017SOL     OW34729   8.149   1.757   3.586
 8017SOL    HW134730   8.158   1.856   3.586
 8017SOL    HW234731   8.117   1.726   3.496
 8018SOL     OW34732   4.438   7.702   3.449
 8018SOL    HW134733   4.429   7.603   3.461
 8018SOL    HW234734   4.402   7.748   3.530
 8019SOL     OW34735   9.083   6.489   1.461
 8019SOL    HW134736   9.009   6.556   1.472
 8019SOL    HW234737   9.168   6.527   1.497
 8020SOL     OW34738   4.297   1.096   2.932
 8020SOL    HW134739   4.242   1.067   3.010
 8020SOL    HW234740   4.360   1.168   2.960
 8021SOL     OW34741   1.367   6.571   1.636
 8021SOL    HW134742   1.398   6.666   1.627
 8021SOL    HW234743   1.291   6.566   1.700
 8022SOL     OW34744   4.338   9.883   0.575
 8022SOL    HW134745   4.427   9.928   0.583
 8022SOL    HW234746   4.301   9.866   0.666
 8023SOL     OW34747   0.538   8.603   1.891
 8023SOL    HW134748   0.556   8.697   1.918
 8023SOL    HW234749   0.560   8.541   1.966
 8024SOL     OW34750   0.667   5.562   3.688
 8024SOL    HW134751   0.647   5.477   3.640
 8024SOL    HW234752   0.739   5.612   3.639
 8025SOL     OW34753   9.163   7.608   2.803
 8025SOL    HW134754   9.111   7.644   2.880
 8025SOL    HW234755   9.119   7.635   2.717
 8026SOL     OW34756   3.069   7.528   3.776
 8026SOL    HW134757   2.976   7.533   3.814
 8026SOL    HW234758   3.065   7.507   3.679
 8027SOL     OW34759   0.301   7.498   1.734
 8027SOL    HW134760   0.252   7.412   1.750
 8027SOL    HW234761   0.253   7.572   1.782
 8028SOL     OW34762   0.744   5.064   2.653
 8028SOL    HW134763   0.684   5.114   2.591
 8028SOL    HW234764   0.828   5.038   2.605
 8029SOL     OW34765   0.099   2.723   1.610
 8029SOL    HW134766   0.020   2.731   1.671
 8029SOL    HW234767   0.182   2.744   1.661
 8030SOL     OW34768   7.849   7.220   2.110
 8030SOL    HW134769   7.902   7.263   2.037
 8030SOL    HW234770   7.753   7.245   2.101
 8031SOL     OW34771   2.318   3.767   3.305
 8031SOL    HW134772   2.313   3.759   3.405
 8031SOL    HW234773   2.413   3.784   3.278
 8032SOL     OW34774   0.525   7.849   1.794
 8032SOL    HW134775   0.617   7.885   1.781
 8032SOL    HW234776   0.481   7.836   1.705
 8033SOL     OW34777   6.750   0.275   1.026
 8033SOL    HW134778   6.693   0.198   1.054
 8033SOL    HW234779   6.745   0.286   0.927
 8034SOL     OW34780   8.283   7.688   1.759
 8034SOL    HW134781   8.249   7.641   1.678
 8034SOL    HW234782   8.298   7.785   1.738
 8035SOL     OW34783   3.609   3.158   2.284
 8035SOL    HW134784   3.600   3.174   2.382
 8035SOL    HW234785   3.547   3.084   2.256
 8036SOL     OW34786   6.122   0.809   1.252
 8036SOL    HW134787   6.063   0.875   1.204
 8036SOL    HW234788   6.159   0.852   1.335
 8037SOL     OW34789   8.880   2.665   2.930
 8037SOL    HW134790   8.835   2.691   3.015
 8037SOL    HW234791   8.880   2.743   2.868
 8038SOL     OW34792   0.419   1.761   0.438
 8038SOL    HW134793   0.480   1.750   0.359
 8038SOL    HW234794   0.328   1.788   0.406
 8039SOL     OW34795   1.750   7.680   1.198
 8039SOL    HW134796   1.722   7.590   1.229
 8039SOL    HW234797   1.846   7.695   1.221
 8040SOL     OW34798   1.819   4.610   1.579
 8040SOL    HW134799   1.896   4.567   1.531
 8040SOL    HW234800   1.779   4.681   1.522
 8041SOL     OW34801   0.584   6.964   2.588
 8041SOL    HW134802   0.545   6.903   2.657
 8041SOL    HW234803   0.524   6.967   2.509
 8042SOL     OW34804   8.161   2.933   1.708
 8042SOL    HW134805   8.134   2.861   1.643
 8042SOL    HW234806   8.252   2.966   1.684
 8043SOL     OW34807   3.835   0.216   0.178
 8043SOL    HW134808   3.820   0.313   0.199
 8043SOL    HW234809   3.924   0.204   0.134
 8044SOL     OW34810   7.215   1.249   0.129
 8044SOL    HW134811   7.137   1.193   0.102
 8044SOL    HW234812   7.295   1.191   0.140
 8045SOL     OW34813   3.861   1.331   1.748
 8045SOL    HW134814   3.790   1.380   1.799
 8045SOL    HW234815   3.908   1.394   1.687
 8046SOL     OW34816   8.078   0.773   1.865
 8046SOL    HW134817   8.104   0.870   1.869
 8046SOL    HW234818   8.089   0.740   1.772
 8047SOL     OW34819   2.590   4.877   0.206
 8047SOL    HW134820   2.672   4.882   0.148
 8047SOL    HW234821   2.525   4.947   0.178
 8048SOL     OW34822   2.739   7.292   3.400
 8048SOL    HW134823   2.808   7.254   3.339
 8048SOL    HW234824   2.655   7.311   3.348
 8049SOL     OW34825   7.117   8.792   3.968
 8049SOL    HW134826   7.056   8.745   4.032
 8049SOL    HW234827   7.074   8.796   3.878
 8050SOL     OW34828   0.376   9.255   2.633
 8050SOL    HW134829   0.334   9.232   2.545
 8050SOL    HW234830   0.306   9.257   2.704
 8051SOL     OW34831   7.927   2.572   0.960
 8051SOL    HW134832   7.888   2.652   1.006
 8051SOL    HW234833   7.967   2.511   1.028
 8052SOL     OW34834   4.551   3.406   3.846
 8052SOL    HW134835   4.566   3.332   3.780
 8052SOL    HW234836   4.601   3.487   3.817
 8053SOL     OW34837   9.926   0.371   1.856
 8053SOL    HW134838   0.013   0.418   1.839
 8053SOL    HW234839   9.851   0.425   1.818
 8054SOL     OW34840   8.217   8.706   1.792
 8054SOL    HW134841   8.146   8.729   1.859
 8054SOL    HW234842   8.289   8.775   1.795
 8055SOL     OW34843   2.502   7.337   3.275
 8055SOL    HW134844   2.484   7.261   3.213
 8055SOL    HW234845   2.428   7.346   3.341
 8056SOL     OW34846   0.833   5.321   3.324
 8056SOL    HW134847   0.878   5.400   3.283
 8056SOL    HW234848   0.848   5.240   3.267
 8057SOL     OW34849   1.130   6.930   3.650
 8057SOL    HW134850   1.045   6.935   3.597
 8057SOL    HW234851   1.200   6.883   3.596
 8058SOL     OW34852   7.515   2.162   0.754
 8058SOL    HW134853   7.605   2.193   0.722
 8058SOL    HW234854   7.448   2.235   0.742
 8059SOL     OW34855   8.542   0.785   1.889
 8059SOL    HW134856   8.616   0.844   1.920
 8059SOL    HW234857   8.475   0.774   1.963
 8060SOL     OW34858   5.880   0.370   1.239
 8060SOL    HW134859   5.782   0.357   1.252
 8060SOL    HW234860   5.907   0.460   1.274
 8061SOL     OW34861   5.290   1.030   1.227
 8061SOL    HW134862   5.248   0.981   1.304
 8061SOL    HW234863   5.297   0.968   1.149
 8062SOL     OW34864   3.200   9.151   1.279
 8062SOL    HW134865   3.138   9.175   1.353
 8062SOL    HW234866   3.289   9.193   1.295
 8063SOL     OW34867   8.176   8.771   1.086
 8063SOL    HW134868   8.215   8.843   1.029
 8063SOL    HW234869   8.172   8.686   1.034
 8064SOL     OW34870   0.564   8.731   2.188
 8064SOL    HW134871   0.562   8.795   2.111
 8064SOL    HW234872   0.475   8.684   2.194
 8065SOL     OW34873   1.601   6.182   1.699
 8065SOL    HW134874   1.639   6.093   1.676
 8065SOL    HW234875   1.514   6.194   1.652
 8066SOL     OW34876   0.814   0.225   3.746
 8066SOL    HW134877   0.772   0.253   3.832
 8066SOL    HW234878   0.868   0.142   3.761
 8067SOL     OW34879   8.841   8.998   0.649
 8067SOL    HW134880   8.880   8.938   0.718
 8067SOL    HW234881   8.914   9.046   0.600
 8068SOL     OW34882   1.372   8.550   2.781
 8068SOL    HW134883   1.443   8.619   2.784
 8068SOL    HW234884   1.348   8.522   2.874
 8069SOL     OW34885   5.828   9.383   3.975
 8069SOL    HW134886   5.730   9.367   3.987
 8069SOL    HW234887   5.841   9.465   3.920
 8070SOL     OW34888   9.950   7.311   3.630
 8070SOL    HW134889   9.899   7.229   3.657
 8070SOL    HW234890   0.027   7.325   3.692
 8071SOL     OW34891   1.995   5.315   3.251
 8071SOL    HW134892   2.060   5.381   3.289
 8071SOL    HW234893   1.907   5.360   3.235
 8072SOL     OW34894   1.453   2.910   0.415
 8072SOL    HW134895   1.362   2.952   0.420
 8072SOL    HW234896   1.523   2.981   0.427
 8073SOL     OW34897   7.561   0.220   3.574
 8073SOL    HW134898   7.511   0.277   3.639
 8073SOL    HW234899   7.656   0.250   3.569
 8074SOL     OW34900   8.328   2.868   2.173
 8074SOL    HW134901   8.415   2.821   2.159
 8074SOL    HW234902   8.270   2.813   2.232
 8075SOL     OW34903   4.663   1.828   2.406
 8075SOL    HW134904   4.758   1.851   2.427
 8075SOL    HW234905   4.607   1.911   2.410
 8076SOL     OW34906   7.623   7.380   1.519
 8076SOL    HW134907   7.523   7.390   1.510
 8076SOL    HW234908   7.662   7.467   1.550
 8077SOL     OW34909   1.280   7.161   0.784
 8077SOL    HW134910   1.337   7.130   0.708
 8077SOL    HW234911   1.257   7.083   0.842
 8078SOL     OW34912   8.545   6.302   3.147
 8078SOL    HW134913   8.572   6.213   3.110
 8078SOL    HW234914   8.448   6.318   3.128
 8079SOL     OW34915   2.040   4.918   3.122
 8079SOL    HW134916   2.014   4.886   3.031
 8079SOL    HW234917   2.140   4.919   3.129
 8080SOL     OW34918   1.779   9.484   2.161
 8080SOL    HW134919   1.760   9.579   2.184
 8080SOL    HW234920   1.866   9.457   2.200
 8081SOL     OW34921   3.534   0.225   2.703
 8081SOL    HW134922   3.591   0.219   2.622
 8081SOL    HW234923   3.489   0.315   2.705
 8082SOL     OW34924   0.866   0.808   2.057
 8082SOL    HW134925   0.787   0.773   2.107
 8082SOL    HW234926   0.916   0.732   2.016
 8083SOL     OW34927   0.828   0.340   3.352
 8083SOL    HW134928   0.747   0.386   3.315
 8083SOL    HW234929   0.857   0.387   3.436
 8084SOL     OW34930   6.530   1.296   4.291
 8084SOL    HW134931   6.595   1.363   4.326
 8084SOL    HW234932   6.579   1.217   4.255
 8085SOL     OW34933   9.335   0.814   0.349
 8085SOL    HW134934   9.347   0.732   0.294
 8085SOL    HW234935   9.356   0.895   0.294
 8086SOL     OW34936   8.358   7.838   1.270
 8086SOL    HW134937   8.381   7.898   1.193
 8086SOL    HW234938   8.350   7.743   1.237
 8087SOL     OW34939   4.310   2.968   0.913
 8087SOL    HW134940   4.395   2.982   0.964
 8087SOL    HW234941   4.296   3.044   0.849
 8088SOL     OW34942   2.223   4.958   1.231
 8088SOL    HW134943   2.320   4.933   1.232
 8088SOL    HW234944   2.185   4.949   1.323
 8089SOL     OW34945   3.871   2.161   1.350
 8089SOL    HW134946   3.929   2.100   1.404
 8089SOL    HW234947   3.919   2.247   1.333
 8090SOL     OW34948   2.417   8.372   4.116
 8090SOL    HW134949   2.453   8.450   4.066
 8090SOL    HW234950   2.469   8.358   4.200
 8091SOL     OW34951   0.506   0.945   4.024
 8091SOL    HW134952   0.433   0.908   4.081
 8091SOL    HW234953   0.591   0.948   4.077
 8092SOL     OW34954   5.281   8.821   1.653
 8092SOL    HW134955   5.328   8.829   1.740
 8092SOL    HW234956   5.252   8.911   1.622
 8093SOL     OW34957   9.299   0.310   4.027
 8093SOL    HW134958   9.295   0.240   3.956
 8093SOL    HW234959   9.211   0.314   4.075
 8094SOL     OW34960   7.129   4.041   0.746
 8094SOL    HW134961   7.132   3.956   0.798
 8094SOL    HW234962   7.202   4.102   0.777
 8095SOL     OW34963   6.340   1.022   3.106
 8095SOL    HW134964   6.387   1.073   3.178
 8095SOL    HW234965   6.257   0.980   3.143
 8096SOL     OW34966   1.707   2.179   3.058
 8096SOL    HW134967   1.790   2.194   3.005
 8096SOL    HW234968   1.718   2.098   3.116
 8097SOL     OW34969   1.871   2.453   4.250
 8097SOL    HW134970   1.881   2.552   4.240
 8097SOL    HW234971   1.923   2.422   4.329
 8098SOL     OW34972   1.137   9.602   1.258
 8098SOL    HW134973   1.075   9.565   1.327
 8098SOL    HW234974   1.152   9.534   1.187
 8099SOL     OW34975   1.924   3.773   2.800
 8099SOL    HW134976   1.872   3.689   2.811
 8099SOL    HW234977   1.937   3.816   2.890
 8100SOL     OW34978   8.063   8.063   2.012
 8100SOL    HW134979   8.139   8.125   2.029
 8100SOL    HW234980   8.044   8.010   2.095
 8101SOL     OW34981   1.743   9.618   0.674
 8101SOL    HW134982   1.682   9.677   0.725
 8101SOL    HW234983   1.709   9.524   0.677
 8102SOL     OW34984   8.902   4.469   1.862
 8102SOL    HW134985   8.877   4.454   1.958
 8102SOL    HW234986   8.852   4.405   1.804
 8103SOL     OW34987   8.117   8.451   3.048
 8103SOL    HW134988   8.184   8.406   2.989
 8103SOL    HW234989   8.033   8.467   2.995
 8104SOL     OW34990   5.380   9.994   1.827
 8104SOL    HW134991   5.411   0.074   1.878
 8104SOL    HW234992   5.452   9.925   1.827
 8105SOL     OW34993   1.370   5.910   0.808
 8105SOL    HW134994   1.313   5.886   0.730
 8105SOL    HW234995   1.349   6.003   0.838
 8106SOL     OW34996   2.243   0.598   1.178
 8106SOL    HW134997   2.259   0.520   1.117
 8106SOL    HW234998   2.327   0.652   1.186
 8107SOL     OW34999   9.568   2.585   2.911
 8107SOL    HW135000   9.476   2.559   2.942
 8107SOL    HW235001   9.568   2.681   2.883
 8108SOL     OW35002   4.418   8.154   0.088
 8108SOL    HW135003   4.413   8.244   0.129
 8108SOL    HW235004   4.445   8.162   5.626
 8109SOL     OW35005   8.116   6.619   2.687
 8109SOL    HW135006   8.125   6.583   2.780
 8109SOL    HW235007   8.206   6.647   2.654
 8110SOL     OW35008   7.452   7.213   3.964
 8110SOL    HW135009   7.392   7.177   4.035
 8110SOL    HW235010   7.540   7.166   3.966
 8111SOL     OW35011   9.391   4.141   2.929
 8111SOL    HW135012   9.380   4.237   2.905
 8111SOL    HW235013   9.313   4.112   2.984
 8112SOL     OW35014   3.390   5.086   0.213
 8112SOL    HW135015   3.346   5.169   0.178
 8112SOL    HW235016   3.389   5.086   0.313
 8113SOL     OW35017   3.115   9.239   1.023
 8113SOL    HW135018   3.096   9.154   0.974
 8113SOL    HW235019   3.152   9.218   1.113
 8114SOL     OW35020   2.222   2.132   2.574
 8114SOL    HW135021   2.224   2.225   2.610
 8114SOL    HW235022   2.249   2.133   2.478
 8115SOL     OW35023   0.632   7.332   4.402
 8115SOL    HW135024   0.535   7.312   4.418
 8115SOL    HW235025   0.682   7.329   4.489
 8116SOL     OW35026   7.406   9.586   3.001
 8116SOL    HW135027   7.502   9.565   3.016
 8116SOL    HW235028   7.387   9.593   2.903
 8117SOL     OW35029   1.236   1.229   1.281
 8117SOL    HW135030   1.242   1.329   1.289
 8117SOL    HW235031   1.142   1.200   1.303
 8118SOL     OW35032   8.980   9.689   2.158
 8118SOL    HW135033   8.902   9.627   2.158
 8118SOL    HW235034   9.062   9.639   2.129
 8119SOL     OW35035   7.461   9.773   3.687
 8119SOL    HW135036   7.454   9.836   3.610
 8119SOL    HW235037   7.473   9.825   3.772
 8120SOL     OW35038   9.982   0.563   0.778
 8120SOL    HW135039   0.000   0.585   0.682
 8120SOL    HW235040   0.063   0.583   0.833
 8121SOL     OW35041   8.315   6.759   1.152
 8121SOL    HW135042   8.306   6.659   1.146
 8121SOL    HW235043   8.315   6.798   1.060
 8122SOL     OW35044   9.170   3.461   1.010
 8122SOL    HW135045   9.160   3.369   0.974
 8122SOL    HW235046   9.141   3.464   1.106
 8123SOL     OW35047   1.788   1.339   3.292
 8123SOL    HW135048   1.742   1.387   3.217
 8123SOL    HW235049   1.825   1.405   3.357
 8124SOL     OW35050   4.348   9.762   2.025
 8124SOL    HW135051   4.384   9.823   2.096
 8124SOL    HW235052   4.271   9.806   1.980
 8125SOL     OW35053   4.135   7.118   1.661
 8125SOL    HW135054   4.188   7.073   1.733
 8125SOL    HW235055   4.067   7.054   1.626
 8126SOL     OW35056   2.836   9.315   0.978
 8126SOL    HW135057   2.827   9.369   1.061
 8126SOL    HW235058   2.916   9.255   0.986
 8127SOL     OW35059   4.053   5.932   2.779
 8127SOL    HW135060   4.008   5.875   2.710
 8127SOL    HW235061   4.020   5.906   2.870
 8128SOL     OW35062   0.020   9.878   1.957
 8128SOL    HW135063   0.094   9.844   1.899
 8128SOL    HW235064   9.943   9.907   1.899
 8129SOL     OW35065   2.019   7.954   3.260
 8129SOL    HW135066   1.920   7.948   3.262
 8129SOL    HW235067   2.058   7.867   3.290
 8130SOL     OW35068   1.526   6.450   3.721
 8130SOL    HW135069   1.440   6.474   3.676
 8130SOL    HW235070   1.601   6.501   3.679
 8131SOL     OW35071   1.332   7.820   0.109
 8131SOL    HW135072   1.287   7.731   0.106
 8131SOL    HW235073   1.266   7.890   0.136
 8132SOL     OW35074   8.330   5.081   2.900
 8132SOL    HW135075   8.249   5.140   2.902
 8132SOL    HW235076   8.316   5.003   2.962
 8133SOL     OW35077   8.345   8.100   3.175
 8133SOL    HW135078   8.411   8.140   3.113
 8133SOL    HW235079   8.252   8.128   3.150
 8134SOL     OW35080   9.707   6.628   0.928
 8134SOL    HW135081   9.648   6.555   0.895
 8134SOL    HW235082   9.770   6.655   0.855
 8135SOL     OW35083   3.443   8.494   2.636
 8135SOL    HW135084   3.525   8.552   2.634
 8135SOL    HW235085   3.463   8.409   2.686
 8136SOL     OW35086   1.844   6.290   3.981
 8136SOL    HW135087   1.816   6.207   3.933
 8136SOL    HW235088   1.767   6.327   4.033
 8137SOL     OW35089   2.088   6.120   3.573
 8137SOL    HW135090   2.124   6.120   3.479
 8137SOL    HW235091   1.989   6.132   3.570
 8138SOL     OW35092   1.630   6.847   1.073
 8138SOL    HW135093   1.709   6.787   1.056
 8138SOL    HW235094   1.663   6.939   1.095
 8139SOL     OW35095   0.187   7.333   2.052
 8139SOL    HW135096   0.111   7.384   2.011
 8139SOL    HW235097   0.220   7.381   2.133
 8140SOL     OW35098   9.161   3.512   4.306
 8140SOL    HW135099   9.156   3.525   4.207
 8140SOL    HW235100   9.249   3.471   4.330
 8141SOL     OW35101   1.366   9.077   0.891
 8141SOL    HW135102   1.358   8.987   0.846
 8141SOL    HW235103   1.293   9.137   0.858
 8142SOL     OW35104   1.587   9.512   3.180
 8142SOL    HW135105   1.568   9.547   3.271
 8142SOL    HW235106   1.686   9.516   3.163
 8143SOL     OW35107   7.092   0.856   2.489
 8143SOL    HW135108   7.046   0.815   2.410
 8143SOL    HW235109   7.078   0.797   2.569
 8144SOL     OW35110   5.091   9.724   1.640
 8144SOL    HW135111   5.122   9.749   1.732
 8144SOL    HW235112   5.021   9.652   1.647
 8145SOL     OW35113   9.585   4.676   3.540
 8145SOL    HW135114   9.670   4.625   3.527
 8145SOL    HW235115   9.521   4.622   3.595
 8146SOL     OW35116   7.128   1.684   2.494
 8146SOL    HW135117   7.196   1.614   2.517
 8146SOL    HW235118   7.079   1.657   2.411
 8147SOL     OW35119   7.955   3.140   2.452
 8147SOL    HW135120   7.984   3.125   2.357
 8147SOL    HW235121   7.990   3.228   2.484
 8148SOL     OW35122   8.722   2.103   1.822
 8148SOL    HW135123   8.770   2.176   1.773
 8148SOL    HW235124   8.629   2.094   1.786
 8149SOL     OW35125   2.715   1.792   1.927
 8149SOL    HW135126   2.767   1.732   1.987
 8149SOL    HW235127   2.778   1.851   1.876
 8150SOL     OW35128   8.908   2.597   3.833
 8150SOL    HW135129   8.928   2.502   3.860
 8150SOL    HW235130   8.933   2.610   3.736
 8151SOL     OW35131   2.956   0.307   1.566
 8151SOL    HW135132   2.955   0.207   1.574
 8151SOL    HW235133   2.868   0.337   1.528
 8152SOL     OW35134   4.494   1.775   2.643
 8152SOL    HW135135   4.465   1.869   2.662
 8152SOL    HW235136   4.557   1.774   2.566
 8153SOL     OW35137   2.465   7.171   3.629
 8153SOL    HW135138   2.561   7.197   3.640
 8153SOL    HW235139   2.417   7.239   3.574
 8154SOL     OW35140   4.460   0.302   1.527
 8154SOL    HW135141   4.512   0.354   1.594
 8154SOL    HW235142   4.508   0.216   1.507
 8155SOL     OW35143   5.210   0.672   0.679
 8155SOL    HW135144   5.138   0.605   0.659
 8155SOL    HW235145   5.269   0.636   0.752
 8156SOL     OW35146   2.717   3.659   3.408
 8156SOL    HW135147   2.816   3.669   3.409
 8156SOL    HW235148   2.674   3.746   3.432
 8157SOL     OW35149   9.072   5.196   2.211
 8157SOL    HW135150   9.089   5.269   2.145
 8157SOL    HW235151   9.141   5.125   2.200
 8158SOL     OW35152   5.197   0.218   1.264
 8158SOL    HW135153   5.217   0.225   1.167
 8158SOL    HW235154   5.229   0.130   1.299
 8159SOL     OW35155   2.960   4.183   1.278
 8159SOL    HW135156   2.914   4.263   1.316
 8159SOL    HW235157   3.002   4.207   1.190
 8160SOL     OW35158   5.533   1.688   3.256
 8160SOL    HW135159   5.545   1.779   3.214
 8160SOL    HW235160   5.436   1.671   3.271
 8161SOL     OW35161   8.500   0.822   1.297
 8161SOL    HW135162   8.544   0.793   1.382
 8161SOL    HW235163   8.429   0.889   1.319
 8162SOL     OW35164   0.310   6.386   0.123
 8162SOL    HW135165   0.250   6.439   0.183
 8162SOL    HW235166   0.321   6.434   0.036
 8163SOL     OW35167   9.215   0.907   1.449
 8163SOL    HW135168   9.204   1.005   1.434
 8163SOL    HW235169   9.252   0.891   1.541
 8164SOL     OW35170   9.456   0.936   1.312
 8164SOL    HW135171   9.370   0.910   1.355
 8164SOL    HW235172   9.448   1.027   1.273
 8165SOL     OW35173   7.587   9.653   3.267
 8165SOL    HW135174   7.493   9.643   3.298
 8165SOL    HW235175   7.619   9.745   3.287
 8166SOL     OW35176   1.032   7.411   4.419
 8166SOL    HW135177   0.960   7.453   4.364
 8166SOL    HW235178   1.121   7.426   4.375
 8167SOL     OW35179   1.846   3.126   1.468
 8167SOL    HW135180   1.839   3.196   1.540
 8167SOL    HW235181   1.825   3.167   1.379
 8168SOL     OW35182   8.313   2.613   2.713
 8168SOL    HW135183   8.379   2.629   2.786
 8168SOL    HW235184   8.310   2.515   2.691
 8169SOL     OW35185   1.750   1.001   2.655
 8169SOL    HW135186   1.808   0.965   2.728
 8169SOL    HW235187   1.806   1.056   2.592
 8170SOL     OW35188   0.079   2.456   1.531
 8170SOL    HW135189   0.082   2.555   1.548
 8170SOL    HW235190   9.988   2.431   1.496
 8171SOL     OW35191   3.402   0.347   3.569
 8171SOL    HW135192   3.469   0.329   3.641
 8171SOL    HW235193   3.329   0.279   3.572
 8172SOL     OW35194   3.045   3.222   2.636
 8172SOL    HW135195   3.024   3.274   2.553
 8172SOL    HW235196   3.144   3.217   2.648
 8173SOL     OW35197   5.157   3.907   0.996
 8173SOL    HW135198   5.221   3.831   1.008
 8173SOL    HW235199   5.079   3.877   0.940
 8174SOL     OW35200   0.611   7.074   2.183
 8174SOL    HW135201   0.571   7.138   2.116
 8174SOL    HW235202   0.691   7.116   2.225
 8175SOL     OW35203   3.034   9.019   0.888
 8175SOL    HW135204   2.965   8.950   0.909
 8175SOL    HW235205   3.010   9.063   0.801
 8176SOL     OW35206   0.140   8.169   1.943
 8176SOL    HW135207   0.149   8.083   1.893
 8176SOL    HW235208   0.230   8.199   1.974
 8177SOL     OW35209   0.940   1.685   2.549
 8177SOL    HW135210   1.020   1.662   2.606
 8177SOL    HW235211   0.949   1.641   2.460
 8178SOL     OW35212   9.622   8.856   3.733
 8178SOL    HW135213   9.702   8.871   3.791
 8178SOL    HW235214   9.541   8.843   3.790
 8179SOL     OW35215   9.822   0.770   4.085
 8179SOL    HW135216   9.904   0.717   4.104
 8179SOL    HW235217   9.783   0.803   4.170
 8180SOL     OW35218   7.323   2.669   0.336
 8180SOL    HW135219   7.357   2.606   0.267
 8180SOL    HW235220   7.400   2.712   0.384
 8181SOL     OW35221   3.224   4.029   3.110
 8181SOL    HW135222   3.263   4.079   3.188
 8181SOL    HW235223   3.148   4.081   3.071
 8182SOL     OW35224   3.395   9.960   3.813
 8182SOL    HW135225   3.387   0.034   3.879
 8182SOL    HW235226   3.341   9.882   3.844
 8183SOL     OW35227   2.370   1.229   3.287
 8183SOL    HW135228   2.318   1.180   3.357
 8183SOL    HW235229   2.310   1.292   3.239
 8184SOL     OW35230   0.776   7.115   2.711
 8184SOL    HW135231   0.757   7.213   2.718
 8184SOL    HW235232   0.705   7.071   2.656
 8185SOL     OW35233   7.684   2.764   3.110
 8185SOL    HW135234   7.780   2.742   3.130
 8185SOL    HW235235   7.626   2.687   3.136
 8186SOL     OW35236   8.907   3.425   4.373
 8186SOL    HW135237   8.994   3.474   4.361
 8186SOL    HW235238   8.925   3.327   4.379
 8187SOL     OW35239   5.557   0.772   0.688
 8187SOL    HW135240   5.483   0.779   0.755
 8187SOL    HW235241   5.542   0.691   0.631
 8188SOL     OW35242   2.774   4.961   0.747
 8188SOL    HW135243   2.831   4.963   0.830
 8188SOL    HW235244   2.771   4.868   0.711
 8189SOL     OW35245   9.043   8.241   0.559
 8189SOL    HW135246   8.981   8.319   0.547
 8189SOL    HW235247   9.033   8.179   0.481
 8190SOL     OW35248   1.246   5.717   4.076
 8190SOL    HW135249   1.157   5.758   4.058
 8190SOL    HW235250   1.306   5.786   4.117
 8191SOL     OW35251   1.926   4.851   2.880
 8191SOL    HW135252   1.947   4.754   2.870
 8191SOL    HW235253   1.881   4.884   2.797
 8192SOL     OW35254   3.640   1.287   3.371
 8192SOL    HW135255   3.657   1.191   3.390
 8192SOL    HW235256   3.595   1.296   3.282
 8193SOL     OW35257   1.112   0.851   2.836
 8193SOL    HW135258   1.072   0.901   2.913
 8193SOL    HW235259   1.179   0.785   2.870
 8194SOL     OW35260   1.740   9.868   3.448
 8194SOL    HW135261   1.714   9.832   3.538
 8194SOL    HW235262   1.657   9.882   3.393
 8195SOL     OW35263   7.555   9.521   3.714
 8195SOL    HW135264   7.531   9.487   3.805
 8195SOL    HW235265   7.515   9.612   3.702
 8196SOL     OW35266   9.998   3.569   2.187
 8196SOL    HW135267   9.999   3.613   2.097
 8196SOL    HW235268   0.088   3.529   2.205
 8197SOL     OW35269   8.085   9.417   1.688
 8197SOL    HW135270   8.102   9.366   1.772
 8197SOL    HW235271   8.004   9.474   1.700
 8198SOL     OW35272   6.803   9.861   1.766
 8198SOL    HW135273   6.773   9.783   1.710
 8198SOL    HW235274   6.743   9.939   1.749
 8199SOL     OW35275   2.936   5.316   3.767
 8199SOL    HW135276   2.977   5.229   3.742
 8199SOL    HW235277   2.924   5.320   3.867
 8200SOL     OW35278   4.820   7.468   1.676
 8200SOL    HW135279   4.786   7.427   1.591
 8200SOL    HW235280   4.818   7.400   1.749
 8201SOL     OW35281   5.940   8.619   4.316
 8201SOL    HW135282   5.930   8.712   4.279
 8201SOL    HW235283   6.011   8.618   4.386
 8202SOL     OW35284   1.215   9.312   1.612
 8202SOL    HW135285   1.230   9.221   1.650
 8202SOL    HW235286   1.159   9.305   1.529
 8203SOL     OW35287   5.713   0.754   3.622
 8203SOL    HW135288   5.798   0.753   3.569
 8203SOL    HW235289   5.635   0.752   3.560
 8204SOL     OW35290   5.198   3.446   1.657
 8204SOL    HW135291   5.176   3.501   1.576
 8204SOL    HW235292   5.239   3.360   1.628
 8205SOL     OW35293   2.395   5.064   0.117
 8205SOL    HW135294   2.379   5.060   0.019
 8205SOL    HW235295   2.385   5.159   0.149
 8206SOL     OW35296   4.260   9.260   2.848
 8206SOL    HW135297   4.202   9.339   2.828
 8206SOL    HW235298   4.286   9.261   2.945
 8207SOL     OW35299   9.404   7.781   2.037
 8207SOL    HW135300   9.441   7.830   1.959
 8207SOL    HW235301   9.478   7.737   2.088
 8208SOL     OW35302   5.711   8.237   4.121
 8208SOL    HW135303   5.782   8.308   4.129
 8208SOL    HW235304   5.698   8.214   4.025
 8209SOL     OW35305   1.081   3.442   2.029
 8209SOL    HW135306   1.029   3.361   1.998
 8209SOL    HW235307   1.033   3.484   2.106
 8210SOL     OW35308   3.927   3.266   1.603
 8210SOL    HW135309   4.019   3.227   1.602
 8210SOL    HW235310   3.898   3.278   1.698
 8211SOL     OW35311   7.461   7.185   3.062
 8211SOL    HW135312   7.480   7.109   2.999
 8211SOL    HW235313   7.364   7.209   3.055
 8212SOL     OW35314   4.970   9.453   1.011
 8212SOL    HW135315   4.879   9.467   1.048
 8212SOL    HW235316   4.963   9.409   0.921
 8213SOL     OW35317   9.662   7.263   2.053
 8213SOL    HW135318   9.717   7.329   2.105
 8213SOL    HW235319   9.566   7.273   2.077
 8214SOL     OW35320   0.573   9.270   3.351
 8214SOL    HW135321   0.645   9.279   3.283
 8214SOL    HW235322   0.490   9.234   3.307
 8215SOL     OW35323   8.117   3.509   0.305
 8215SOL    HW135324   8.210   3.547   0.311
 8215SOL    HW235325   8.069   3.524   0.391
 8216SOL     OW35326   8.793   1.316   4.317
 8216SOL    HW135327   8.799   1.282   4.223
 8216SOL    HW235328   8.702   1.355   4.333
 8217SOL     OW35329   9.120   3.685   0.870
 8217SOL    HW135330   9.061   3.654   0.796
 8217SOL    HW235331   9.137   3.610   0.934
 8218SOL     OW35332   4.161   3.505   2.837
 8218SOL    HW135333   4.143   3.428   2.897
 8218SOL    HW235334   4.250   3.493   2.793
 8219SOL     OW35335   0.238   3.434   2.207
 8219SOL    HW135336   0.330   3.472   2.217
 8219SOL    HW235337   0.236   3.341   2.242
 8220SOL     OW35338   9.116   4.395   2.371
 8220SOL    HW135339   9.060   4.345   2.305
 8220SOL    HW235340   9.162   4.330   2.431
 8221SOL     OW35341   7.485   9.244   2.773
 8221SOL    HW135342   7.536   9.163   2.803
 8221SOL    HW235343   7.446   9.227   2.683
 8222SOL     OW35344   8.710   3.608   2.011
 8222SOL    HW135345   8.641   3.553   1.965
 8222SOL    HW235346   8.710   3.700   1.971
 8223SOL     OW35347   7.841   5.758   4.252
 8223SOL    HW135348   7.835   5.817   4.333
 8223SOL    HW235349   7.899   5.802   4.184
 8224SOL     OW35350   9.509   0.513   2.456
 8224SOL    HW135351   9.476   0.595   2.503
 8224SOL    HW235352   9.562   0.457   2.520
 8225SOL     OW35353   4.578   8.985   3.175
 8225SOL    HW135354   4.501   8.940   3.131
 8225SOL    HW235355   4.581   8.960   3.272
 8226SOL     OW35356   9.820   9.857   0.090
 8226SOL    HW135357   9.729   9.815   0.094
 8226SOL    HW235358   9.811   9.953   0.064
 8227SOL     OW35359   3.573   4.769   0.303
 8227SOL    HW135360   3.559   4.793   0.399
 8227SOL    HW235361   3.616   4.846   0.255
 8228SOL     OW35362   5.677   1.961   2.367
 8228SOL    HW135363   5.693   1.929   2.274
 8228SOL    HW235364   5.708   1.892   2.432
 8229SOL     OW35365   8.034   8.620   4.250
 8229SOL    HW135366   8.085   8.660   4.326
 8229SOL    HW235367   8.092   8.616   4.169
 8230SOL     OW35368   1.698   9.063   1.550
 8230SOL    HW135369   1.606   9.101   1.539
 8230SOL    HW235370   1.756   9.131   1.594
 8231SOL     OW35371   0.185   0.300   3.012
 8231SOL    HW135372   0.109   0.317   2.950
 8231SOL    HW235373   0.236   0.385   3.027
 8232SOL     OW35374   0.178   8.447   4.361
 8232SOL    HW135375   0.188   8.490   4.451
 8232SOL    HW235376   0.176   8.517   4.290
 8233SOL     OW35377   1.769   8.829   3.936
 8233SOL    HW135378   1.714   8.751   3.966
 8233SOL    HW235379   1.813   8.807   3.848
 8234SOL     OW35380   3.256   0.918   0.978
 8234SOL    HW135381   3.259   0.985   0.904
 8234SOL    HW235382   3.212   0.835   0.945
 8235SOL     OW35383   6.835   9.422   4.235
 8235SOL    HW135384   6.793   9.503   4.274
 8235SOL    HW235385   6.795   9.404   4.145
 8236SOL     OW35386   3.742   5.278   4.219
 8236SOL    HW135387   3.764   5.192   4.174
 8236SOL    HW235388   3.811   5.347   4.195
 8237SOL     OW35389   2.947   4.822   1.428
 8237SOL    HW135390   2.894   4.772   1.496
 8237SOL    HW235391   3.044   4.817   1.451
 8238SOL     OW35392   5.624   7.915   1.698
 8238SOL    HW135393   5.589   7.939   1.789
 8238SOL    HW235394   5.602   7.988   1.634
 8239SOL     OW35395   3.019   9.657   1.075
 8239SOL    HW135396   3.061   9.599   1.006
 8239SOL    HW235397   2.938   9.702   1.037
 8240SOL     OW35398   9.871   9.271   0.430
 8240SOL    HW135399   9.800   9.282   0.499
 8240SOL    HW235400   9.848   9.194   0.371
 8241SOL     OW35401   6.619   7.354   3.679
 8241SOL    HW135402   6.538   7.303   3.650
 8241SOL    HW235403   6.642   7.328   3.773
 8242SOL     OW35404   4.339   8.309   3.294
 8242SOL    HW135405   4.400   8.236   3.325
 8242SOL    HW235406   4.379   8.398   3.317
 8243SOL     OW35407   1.200   1.944   3.376
 8243SOL    HW135408   1.237   2.004   3.446
 8243SOL    HW235409   1.103   1.965   3.362
 8244SOL     OW35410   3.141   3.589   0.297
 8244SOL    HW135411   3.180   3.657   0.359
 8244SOL    HW235412   3.054   3.556   0.334
 8245SOL     OW35413   0.605   8.448   0.979
 8245SOL    HW135414   0.526   8.488   0.934
 8245SOL    HW235415   0.631   8.363   0.933
 8246SOL     OW35416   3.654   8.274   2.488
 8246SOL    HW135417   3.625   8.239   2.399
 8246SOL    HW235418   3.577   8.267   2.553
 8247SOL     OW35419   6.684   6.841   3.737
 8247SOL    HW135420   6.713   6.922   3.788
 8247SOL    HW235421   6.611   6.795   3.786
 8248SOL     OW35422   0.698   4.682   3.210
 8248SOL    HW135423   0.785   4.656   3.168
 8248SOL    HW235424   0.661   4.762   3.163
 8249SOL     OW35425   2.387   7.914   1.420
 8249SOL    HW135426   2.388   7.955   1.328
 8249SOL    HW235427   2.299   7.869   1.435
 8250SOL     OW35428   3.069   4.291   1.048
 8250SOL    HW135429   3.167   4.308   1.054
 8250SOL    HW235430   3.050   4.235   0.967
 8251SOL     OW35431   3.241   5.848   3.099
 8251SOL    HW135432   3.275   5.869   3.007
 8251SOL    HW235433   3.250   5.929   3.157
 8252SOL     OW35434   2.635   7.692   2.711
 8252SOL    HW135435   2.614   7.665   2.805
 8252SOL    HW235436   2.602   7.622   2.647
 8253SOL     OW35437   1.592   6.339   4.121
 8253SOL    HW135438   1.603   6.313   4.217
 8253SOL    HW235439   1.516   6.404   4.113
 8254SOL     OW35440   2.406   5.104   0.971
 8254SOL    HW135441   2.377   5.041   1.042
 8254SOL    HW235442   2.327   5.148   0.929
 8255SOL     OW35443   4.087   9.451   2.049
 8255SOL    HW135444   4.015   9.520   2.060
 8255SOL    HW235445   4.048   9.360   2.060
 8256SOL     OW35446   8.909   8.702   3.743
 8256SOL    HW135447   8.981   8.723   3.808
 8256SOL    HW235448   8.930   8.615   3.697
 8257SOL     OW35449   2.551   9.889   1.646
 8257SOL    HW135450   2.466   9.838   1.655
 8257SOL    HW235451   2.551   9.967   1.709
 8258SOL     OW35452   4.434   8.508   0.726
 8258SOL    HW135453   4.492   8.521   0.646
 8258SOL    HW235454   4.382   8.592   0.744
 8259SOL     OW35455   7.972   1.539   2.475
 8259SOL    HW135456   8.039   1.507   2.542
 8259SOL    HW235457   7.947   1.464   2.414
 8260SOL     OW35458   4.304   4.109   0.575
 8260SOL    HW135459   4.211   4.074   0.576
 8260SOL    HW235460   4.360   4.056   0.639
 8261SOL     OW35461   1.800   9.090   3.592
 8261SOL    HW135462   1.770   9.142   3.512
 8261SOL    HW235463   1.897   9.107   3.609
 8262SOL     OW35464   4.920   1.904   2.468
 8262SOL    HW135465   4.902   1.987   2.521
 8262SOL    HW235466   4.977   1.841   2.522
 8263SOL     OW35467   7.347   1.161   3.591
 8263SOL    HW135468   7.447   1.157   3.588
 8263SOL    HW235469   7.317   1.184   3.684
 8264SOL     OW35470   4.530   8.122   3.370
 8264SOL    HW135471   4.610   8.179   3.355
 8264SOL    HW235472   4.538   8.038   3.315
 8265SOL     OW35473   6.142   9.521   3.489
 8265SOL    HW135474   6.061   9.523   3.430
 8265SOL    HW235475   6.212   9.583   3.452
 8266SOL     OW35476   9.046   9.072   3.009
 8266SOL    HW135477   8.969   9.135   3.009
 8266SOL    HW235478   9.042   9.014   3.090
 8267SOL     OW35479   1.466   0.610   4.260
 8267SOL    HW135480   1.366   0.600   4.263
 8267SOL    HW235481   1.508   0.537   4.313
 8268SOL     OW35482   1.011   5.053   1.356
 8268SOL    HW135483   0.928   4.998   1.350
 8268SOL    HW235484   1.002   5.118   1.432
 8269SOL     OW35485   9.047   2.722   2.602
 8269SOL    HW135486   8.991   2.721   2.519
 8269SOL    HW235487   9.007   2.786   2.668
 8270SOL     OW35488   7.473   1.398   3.897
 8270SOL    HW135489   7.401   1.329   3.886
 8270SOL    HW235490   7.559   1.353   3.920
 8271SOL     OW35491   0.158   7.114   4.430
 8271SOL    HW135492   0.150   7.114   4.529
 8271SOL    HW235493   0.235   7.171   4.402
 8272SOL     OW35494   3.123   1.627   4.019
 8272SOL    HW135495   3.168   1.555   3.966
 8272SOL    HW235496   3.121   1.600   4.116
 8273SOL     OW35497   3.306   8.430   3.587
 8273SOL    HW135498   3.323   8.415   3.490
 8273SOL    HW235499   3.386   8.401   3.639
 8274SOL     OW35500   8.422   8.844   2.421
 8274SOL    HW135501   8.348   8.886   2.473
 8274SOL    HW235502   8.469   8.914   2.367
 8275SOL     OW35503   7.507   0.489   3.213
 8275SOL    HW135504   7.442   0.559   3.185
 8275SOL    HW235505   7.544   0.511   3.303
 8276SOL     OW35506   9.348   6.617   2.413
 8276SOL    HW135507   9.252   6.603   2.388
 8276SOL    HW235508   9.359   6.602   2.511
 8277SOL     OW35509   3.822   3.403   0.280
 8277SOL    HW135510   3.727   3.433   0.287
 8277SOL    HW235511   3.825   3.308   0.250
 8278SOL     OW35512   2.729   8.336   1.062
 8278SOL    HW135513   2.658   8.381   1.008
 8278SOL    HW235514   2.776   8.404   1.120
 8279SOL     OW35515   7.999   6.122   3.637
 8279SOL    HW135516   7.959   6.170   3.714
 8279SOL    HW235517   7.931   6.114   3.564
 8280SOL     OW35518   7.016   9.322   0.966
 8280SOL    HW135519   7.016   9.222   0.978
 8280SOL    HW235520   6.940   9.361   1.018
 8281SOL     OW35521   8.877   6.096   1.322
 8281SOL    HW135522   8.861   6.046   1.407
 8281SOL    HW235523   8.969   6.076   1.288
 8282SOL     OW35524   7.080   0.415   2.605
 8282SOL    HW135525   7.119   0.336   2.559
 8282SOL    HW235526   7.021   0.465   2.541
 8283SOL     OW35527   7.936   7.478   2.879
 8283SOL    HW135528   7.930   7.556   2.941
 8283SOL    HW235529   7.911   7.507   2.786
 8284SOL     OW35530   7.428   1.081   0.192
 8284SOL    HW135531   7.413   1.102   0.289
 8284SOL    HW235532   7.523   1.099   0.169
 8285SOL     OW35533   2.731   9.512   1.664
 8285SOL    HW135534   2.748   9.609   1.684
 8285SOL    HW235535   2.812   9.472   1.622
 8286SOL     OW35536   1.894   3.077   3.721
 8286SOL    HW135537   1.929   3.068   3.627
 8286SOL    HW235538   1.795   3.093   3.718
 8287SOL     OW35539   3.349   0.646   2.483
 8287SOL    HW135540   3.250   0.656   2.487
 8287SOL    HW235541   3.392   0.736   2.486
 8288SOL     OW35542   5.141   9.446   3.065
 8288SOL    HW135543   5.074   9.380   3.098
 8288SOL    HW235544   5.100   9.538   3.068
 8289SOL     OW35545   4.323   5.359   0.681
 8289SOL    HW135546   4.290   5.367   0.775
 8289SOL    HW235547   4.303   5.267   0.647
 8290SOL     OW35548   8.067   0.945   1.552
 8290SOL    HW135549   8.143   0.981   1.498
 8290SOL    HW235550   8.080   0.847   1.566
 8291SOL     OW35551   4.117   8.336   3.854
 8291SOL    HW135552   4.162   8.373   3.935
 8291SOL    HW235553   4.178   8.344   3.775
 8292SOL     OW35554   8.908   1.822   2.834
 8292SOL    HW135555   8.970   1.842   2.911
 8292SOL    HW235556   8.929   1.731   2.798
 8293SOL     OW35557   6.279   8.076   2.553
 8293SOL    HW135558   6.192   8.122   2.532
 8293SOL    HW235559   6.339   8.139   2.603
 8294SOL     OW35560   9.078   5.456   0.499
 8294SOL    HW135561   9.142   5.387   0.532
 8294SOL    HW235562   8.991   5.446   0.547
 8295SOL     OW35563   1.791   6.532   2.571
 8295SOL    HW135564   1.801   6.531   2.670
 8295SOL    HW235565   1.726   6.603   2.544
 8296SOL     OW35566   4.376   9.427   1.668
 8296SOL    HW135567   4.370   9.477   1.582
 8296SOL    HW235568   4.306   9.459   1.731
 8297SOL     OW35569   8.471   2.416   3.232
 8297SOL    HW135570   8.428   2.416   3.322
 8297SOL    HW235571   8.421   2.477   3.171
 8298SOL     OW35572   1.984   6.417   2.015
 8298SOL    HW135573   2.029   6.475   2.082
 8298SOL    HW235574   1.904   6.464   1.978
 8299SOL     OW35575   9.635   9.638   4.178
 8299SOL    HW135576   9.667   9.628   4.273
 8299SOL    HW235577   9.714   9.646   4.117
 8300SOL     OW35578   3.412   3.883   2.964
 8300SOL    HW135579   3.500   3.931   2.960
 8300SOL    HW235580   3.343   3.942   3.005
 8301SOL     OW35581   8.878   8.578   0.306
 8301SOL    HW135582   8.873   8.518   0.385
 8301SOL    HW235583   8.791   8.625   0.293
 8302SOL     OW35584   1.237   8.203   3.324
 8302SOL    HW135585   1.332   8.172   3.332
 8302SOL    HW235586   1.215   8.220   3.228
 8303SOL     OW35587   2.718   1.937   4.171
 8303SOL    HW135588   2.769   1.868   4.119
 8303SOL    HW235589   2.781   1.989   4.228
 8304SOL     OW35590   0.074   5.985   1.390
 8304SOL    HW135591   0.078   5.996   1.290
 8304SOL    HW235592   0.158   6.019   1.431
 8305SOL     OW35593   9.510   2.507   0.109
 8305SOL    HW135594   9.562   2.578   0.157
 8305SOL    HW235595   9.426   2.546   0.072
 8306SOL     OW35596   9.633   2.871   0.459
 8306SOL    HW135597   9.627   2.971   0.462
 8306SOL    HW235598   9.721   2.841   0.496
 8307SOL     OW35599   2.072   4.166   2.967
 8307SOL    HW135600   2.090   4.251   3.017
 8307SOL    HW235601   2.134   4.161   2.889
 8308SOL     OW35602   1.239   5.914   2.880
 8308SOL    HW135603   1.286   6.002   2.885
 8308SOL    HW235604   1.286   5.855   2.815
 8309SOL     OW35605   7.756   6.496   2.206
 8309SOL    HW135606   7.669   6.510   2.158
 8309SOL    HW235607   7.792   6.585   2.235
 8310SOL     OW35608   8.952   5.030   3.729
 8310SOL    HW135609   8.993   5.094   3.794
 8310SOL    HW235610   8.940   5.076   3.641
 8311SOL     OW35611   6.074   9.831   3.759
 8311SOL    HW135612   6.124   9.837   3.672
 8311SOL    HW235613   6.060   9.922   3.796
 8312SOL     OW35614   3.119   3.836   3.779
 8312SOL    HW135615   3.052   3.770   3.746
 8312SOL    HW235616   3.151   3.809   3.870
 8313SOL     OW35617   9.172   9.485   0.564
 8313SOL    HW135618   9.262   9.484   0.520
 8313SOL    HW235619   9.102   9.457   0.497
 8314SOL     OW35620   2.174   5.497   3.350
 8314SOL    HW135621   2.230   5.551   3.287
 8314SOL    HW235622   2.232   5.461   3.424
 8315SOL     OW35623   0.805   5.493   1.726
 8315SOL    HW135624   0.812   5.460   1.632
 8315SOL    HW235625   0.709   5.493   1.755
 8316SOL     OW35626   0.212   8.330   2.702
 8316SOL    HW135627   0.212   8.420   2.745
 8316SOL    HW235628   0.297   8.318   2.651
 8317SOL     OW35629   0.762   1.098   2.977
 8317SOL    HW135630   0.798   1.157   2.904
 8317SOL    HW235631   0.836   1.042   3.014
 8318SOL     OW35632   9.804   2.503   3.002
 8318SOL    HW135633   9.716   2.525   2.959
 8318SOL    HW235634   9.865   2.461   2.934
 8319SOL     OW35635   9.249   4.496   1.483
 8319SOL    HW135636   9.282   4.417   1.536
 8319SOL    HW235637   9.312   4.514   1.408
 8320SOL     OW35638   4.780   0.300   1.331
 8320SOL    HW135639   4.727   0.341   1.257
 8320SOL    HW235640   4.783   0.201   1.319
 8321SOL     OW35641   4.831   5.824   1.179
 8321SOL    HW135642   4.917   5.798   1.136
 8321SOL    HW235643   4.755   5.798   1.119
 8322SOL     OW35644   2.139   9.140   2.721
 8322SOL    HW135645   2.056   9.195   2.720
 8322SOL    HW235646   2.130   9.063   2.658
 8323SOL     OW35647   9.155   6.230   3.690
 8323SOL    HW135648   9.196   6.245   3.600
 8323SOL    HW235649   9.095   6.151   3.687
 8324SOL     OW35650   4.706   7.675   1.811
 8324SOL    HW135651   4.750   7.616   1.744
 8324SOL    HW235652   4.627   7.720   1.768
 8325SOL     OW35653   3.776   0.222   1.305
 8325SOL    HW135654   3.860   0.172   1.285
 8325SOL    HW235655   3.730   0.181   1.383
 8326SOL     OW35656   1.447   8.631   2.132
 8326SOL    HW135657   1.395   8.584   2.204
 8326SOL    HW235658   1.402   8.718   2.111
 8327SOL     OW35659   8.334   2.055   3.312
 8327SOL    HW135660   8.277   2.131   3.279
 8327SOL    HW235661   8.335   1.982   3.244
 8328SOL     OW35662   2.695   8.046   2.344
 8328SOL    HW135663   2.752   8.128   2.355
 8328SOL    HW235664   2.680   8.003   2.433
 8329SOL     OW35665   8.808   3.363   4.121
 8329SOL    HW135666   8.888   3.332   4.070
 8329SOL    HW235667   8.836   3.394   4.212
 8330SOL     OW35668   5.386   8.517   3.708
 8330SOL    HW135669   5.372   8.495   3.805
 8330SOL    HW235670   5.300   8.502   3.658
 8331SOL     OW35671   2.104   8.876   2.222
 8331SOL    HW135672   2.112   8.921   2.133
 8331SOL    HW235673   2.009   8.881   2.254
 8332SOL     OW35674   3.306   4.542   2.858
 8332SOL    HW135675   3.320   4.615   2.925
 8332SOL    HW235676   3.330   4.454   2.899
 8333SOL     OW35677   3.229   0.190   3.269
 8333SOL    HW135678   3.301   0.125   3.246
 8333SOL    HW235679   3.144   0.141   3.288
 8334SOL     OW35680   9.213   0.525   1.995
 8334SOL    HW135681   9.260   0.590   2.055
 8334SOL    HW235682   9.151   0.468   2.050
 8335SOL     OW35683   3.857   9.976   2.799
 8335SOL    HW135684   3.840   0.017   2.710
 8335SOL    HW235685   3.904   0.043   2.858
 8336SOL     OW35686   5.433   1.106   4.171
 8336SOL    HW135687   5.518   1.058   4.147
 8336SOL    HW235688   5.453   1.175   4.241
 8337SOL     OW35689   3.659   1.024   3.444
 8337SOL    HW135690   3.678   1.021   3.542
 8337SOL    HW235691   3.600   0.948   3.419
 8338SOL     OW35692   3.695   4.821   4.292
 8338SOL    HW135693   3.622   4.862   4.347
 8338SOL    HW235694   3.728   4.887   4.224
 8339SOL     OW35695   4.535   0.845   2.084
 8339SOL    HW135696   4.520   0.758   2.131
 8339SOL    HW235697   4.600   0.833   2.010
 8340SOL     OW35698   1.706   0.462   0.162
 8340SOL    HW135699   1.774   0.441   0.231
 8340SOL    HW235700   1.695   0.561   0.153
 8341SOL     OW35701   4.640   3.487   1.657
 8341SOL    HW135702   4.700   3.514   1.733
 8341SOL    HW235703   4.636   3.562   1.591
 8342SOL     OW35704   9.581   9.183   1.361
 8342SOL    HW135705   9.551   9.088   1.373
 8342SOL    HW235706   9.677   9.191   1.388
 8343SOL     OW35707   4.820   6.988   3.183
 8343SOL    HW135708   4.849   7.007   3.277
 8343SOL    HW235709   4.723   6.964   3.182
 8344SOL     OW35710   1.875   8.889   4.185
 8344SOL    HW135711   1.953   8.828   4.185
 8344SOL    HW235712   1.824   8.879   4.099
 8345SOL     OW35713   9.380   4.407   0.712
 8345SOL    HW135714   9.472   4.412   0.672
 8345SOL    HW235715   9.325   4.342   0.661
 8346SOL     OW35716   7.319   7.752   3.513
 8346SOL    HW135717   7.236   7.731   3.565
 8346SOL    HW235718   7.294   7.768   3.417
 8347SOL     OW35719   2.919   5.519   3.046
 8347SOL    HW135720   2.892   5.543   3.139
 8347SOL    HW235721   2.957   5.426   3.045
 8348SOL     OW35722   0.483   9.788   0.704
 8348SOL    HW135723   0.499   9.881   0.739
 8348SOL    HW235724   0.450   9.793   0.610
 8349SOL     OW35725   7.641   6.521   3.731
 8349SOL    HW135726   7.606   6.444   3.678
 8349SOL    HW235727   7.566   6.580   3.760
 8350SOL     OW35728   5.693   9.491   3.690
 8350SOL    HW135729   5.630   9.515   3.616
 8350SOL    HW235730   5.744   9.409   3.665
 8351SOL     OW35731   3.034   7.094   2.423
 8351SOL    HW135732   3.078   7.004   2.423
 8351SOL    HW235733   3.004   7.117   2.331
 8352SOL     OW35734   3.239   9.132   1.592
 8352SOL    HW135735   3.240   9.223   1.549
 8352SOL    HW235736   3.309   9.075   1.551
 8353SOL     OW35737   3.240   8.764   2.723
 8353SOL    HW135738   3.318   8.810   2.682
 8353SOL    HW235739   3.218   8.682   2.670
 8354SOL     OW35740   3.894   3.626   3.924
 8354SOL    HW135741   3.925   3.664   4.011
 8354SOL    HW235742   3.969   3.578   3.879
 8355SOL     OW35743   4.849   7.760   1.425
 8355SOL    HW135744   4.893   7.670   1.425
 8355SOL    HW235745   4.751   7.749   1.438
 8356SOL     OW35746   4.564   2.279   1.259
 8356SOL    HW135747   4.493   2.251   1.324
 8356SOL    HW235748   4.552   2.376   1.236
 8357SOL     OW35749   3.581   4.831   1.696
 8357SOL    HW135750   3.492   4.866   1.726
 8357SOL    HW235751   3.569   4.742   1.652
 8358SOL     OW35752   0.494   9.639   0.162
 8358SOL    HW135753   0.564   9.573   0.136
 8358SOL    HW235754   0.536   9.729   0.175
 8359SOL     OW35755   1.989   8.547   4.333
 8359SOL    HW135756   2.064   8.483   4.347
 8359SOL    HW235757   1.963   8.587   4.421
 8360SOL     OW35758   2.722   7.613   0.673
 8360SOL    HW135759   2.796   7.547   0.681
 8360SOL    HW235760   2.720   7.670   0.755
 8361SOL     OW35761   3.235   4.224   0.613
 8361SOL    HW135762   3.294   4.302   0.635
 8361SOL    HW235763   3.169   4.251   0.542
 8362SOL     OW35764   8.230   8.346   4.010
 8362SOL    HW135765   8.234   8.317   4.105
 8362SOL    HW235766   8.299   8.298   3.957
 8363SOL     OW35767   9.402   6.072   1.158
 8363SOL    HW135768   9.401   5.983   1.205
 8363SOL    HW235769   9.495   6.110   1.160
 8364SOL     OW35770   9.076   9.342   1.645
 8364SOL    HW135771   9.076   9.415   1.714
 8364SOL    HW235772   8.984   9.303   1.637
 8365SOL     OW35773   1.087   8.250   2.673
 8365SOL    HW135774   1.069   8.328   2.733
 8365SOL    HW235775   1.020   8.249   2.599
 8366SOL     OW35776   9.876   7.339   0.384
 8366SOL    HW135777   9.948   7.400   0.418
 8366SOL    HW235778   9.805   7.330   0.454
 8367SOL     OW35779   0.870   4.572   2.177
 8367SOL    HW135780   0.798   4.614   2.123
 8367SOL    HW235781   0.897   4.485   2.135
 8368SOL     OW35782   2.197   3.021   4.240
 8368SOL    HW135783   2.153   3.093   4.187
 8368SOL    HW235784   2.252   3.061   4.313
 8369SOL     OW35785   5.431   3.471   2.304
 8369SOL    HW135786   5.427   3.553   2.246
 8369SOL    HW235787   5.496   3.486   2.378
 8370SOL     OW35788   6.068   6.985   2.361
 8370SOL    HW135789   6.063   6.913   2.431
 8370SOL    HW235790   5.997   6.970   2.293
 8371SOL     OW35791   4.070   1.325   3.448
 8371SOL    HW135792   4.044   1.416   3.480
 8371SOL    HW235793   4.083   1.327   3.349
 8372SOL     OW35794   8.836   5.437   0.637
 8372SOL    HW135795   8.745   5.403   0.613
 8372SOL    HW235796   8.846   5.439   0.737
 8373SOL     OW35797   1.936   4.839   4.386
 8373SOL    HW135798   1.839   4.863   4.392
 8373SOL    HW235799   1.989   4.920   4.361
 8374SOL     OW35800   5.209   0.946   1.676
 8374SOL    HW135801   5.152   0.924   1.755
 8374SOL    HW235802   5.305   0.929   1.698
 8375SOL     OW35803   8.186   7.383   0.144
 8375SOL    HW135804   8.225   7.309   0.199
 8375SOL    HW235805   8.130   7.344   0.070
 8376SOL     OW35806   5.104   3.602   1.444
 8376SOL    HW135807   5.124   3.700   1.445
 8376SOL    HW235808   5.051   3.580   1.362
 8377SOL     OW35809   3.791   3.354   3.888
 8377SOL    HW135810   3.805   3.450   3.911
 8377SOL    HW235811   3.780   3.344   3.789
 8378SOL     OW35812   7.063   9.609   1.234
 8378SOL    HW135813   7.121   9.533   1.204
 8378SOL    HW235814   7.118   9.673   1.288
 8379SOL     OW35815   0.321   3.407   0.375
 8379SOL    HW135816   0.322   3.487   0.314
 8379SOL    HW235817   0.282   3.329   0.326
 8380SOL     OW35818   9.490   6.624   2.175
 8380SOL    HW135819   9.416   6.618   2.242
 8380SOL    HW235820   9.464   6.574   2.092
 8381SOL     OW35821   5.307   7.542   1.442
 8381SOL    HW135822   5.378   7.611   1.457
 8381SOL    HW235823   5.307   7.476   1.517
 8382SOL     OW35824   5.253   0.349   4.145
 8382SOL    HW135825   5.320   0.396   4.202
 8382SOL    HW235826   5.263   0.250   4.157
 8383SOL     OW35827   6.900   1.228   4.323
 8383SOL    HW135828   6.970   1.157   4.322
 8383SOL    HW235829   6.942   1.316   4.300
 8384SOL     OW35830   3.603   2.449   1.576
 8384SOL    HW135831   3.540   2.509   1.627
 8384SOL    HW235832   3.599   2.472   1.479
 8385SOL     OW35833   3.041   0.040   2.412
 8385SOL    HW135834   3.043   0.134   2.379
 8385SOL    HW235835   3.132   0.015   2.448
 8386SOL     OW35836   3.745   2.217   1.112
 8386SOL    HW135837   3.789   2.204   1.201
 8386SOL    HW235838   3.656   2.261   1.126
 8387SOL     OW35839   2.281   7.714   3.877
 8387SOL    HW135840   2.339   7.752   3.949
 8387SOL    HW235841   2.256   7.787   3.813
 8388SOL     OW35842   2.776   9.755   0.977
 8388SOL    HW135843   2.799   9.760   0.879
 8388SOL    HW235844   2.682   9.723   0.987
 8389SOL     OW35845   0.461   7.555   2.639
 8389SOL    HW135846   0.414   7.476   2.678
 8389SOL    HW235847   0.532   7.524   2.576
 8390SOL     OW35848   1.640   0.534   2.019
 8390SOL    HW135849   1.589   0.465   2.071
 8390SOL    HW235850   1.721   0.561   2.071
 8391SOL     OW35851   8.821   4.682   0.217
 8391SOL    HW135852   8.754   4.623   0.174
 8391SOL    HW235853   8.911   4.638   0.214
 8392SOL     OW35854   2.565   5.054   3.595
 8392SOL    HW135855   2.637   4.985   3.597
 8392SOL    HW235856   2.477   5.009   3.578
 8393SOL     OW35857   4.386   8.352   2.285
 8393SOL    HW135858   4.375   8.431   2.346
 8393SOL    HW235859   4.403   8.385   2.192
 8394SOL     OW35860   2.933   9.120   0.659
 8394SOL    HW135861   2.980   9.157   0.579
 8394SOL    HW235862   2.836   9.145   0.656
 8395SOL     OW35863   7.801   0.365   3.575
 8395SOL    HW135864   7.799   0.406   3.666
 8395SOL    HW235865   7.891   0.378   3.534
 8396SOL     OW35866   1.507   1.100   3.586
 8396SOL    HW135867   1.514   1.018   3.643
 8396SOL    HW235868   1.437   1.087   3.516
 8397SOL     OW35869   3.955   8.585   1.429
 8397SOL    HW135870   4.035   8.644   1.438
 8397SOL    HW235871   3.878   8.638   1.394
 8398SOL     OW35872   8.359   8.951   3.428
 8398SOL    HW135873   8.401   8.940   3.519
 8398SOL    HW235874   8.425   8.924   3.358
 8399SOL     OW35875   2.997   2.582   1.024
 8399SOL    HW135876   2.968   2.548   1.114
 8399SOL    HW235877   2.944   2.663   1.000
 8400SOL     OW35878   8.684   7.615   3.611
 8400SOL    HW135879   8.670   7.602   3.512
 8400SOL    HW235880   8.606   7.665   3.649
 8401SOL     OW35881   1.043   8.877   3.908
 8401SOL    HW135882   1.089   8.966   3.909
 8401SOL    HW235883   1.076   8.824   3.830
 8402SOL     OW35884   6.151   1.223   2.048
 8402SOL    HW135885   6.100   1.308   2.062
 8402SOL    HW235886   6.089   1.145   2.057
 8403SOL     OW35887   1.441   6.137   4.010
 8403SOL    HW135888   1.453   6.139   3.911
 8403SOL    HW235889   1.502   6.203   4.053
 8404SOL     OW35890   7.950   2.071   3.195
 8404SOL    HW135891   7.973   1.981   3.159
 8404SOL    HW235892   7.870   2.064   3.254
 8405SOL     OW35893   8.558   2.731   0.434
 8405SOL    HW135894   8.601   2.784   0.361
 8405SOL    HW235895   8.543   2.789   0.514
 8406SOL     OW35896   4.408   2.759   1.808
 8406SOL    HW135897   4.491   2.814   1.820
 8406SOL    HW235898   4.328   2.814   1.833
 8407SOL     OW35899   5.696   9.910   2.983
 8407SOL    HW135900   5.714   9.945   3.075
 8407SOL    HW235901   5.777   9.865   2.947
 8408SOL     OW35902   3.413   2.834   2.964
 8408SOL    HW135903   3.447   2.772   2.894
 8408SOL    HW235904   3.318   2.859   2.943
 8409SOL     OW35905   2.021   8.112   0.657
 8409SOL    HW135906   2.080   8.167   0.716
 8409SOL    HW235907   2.077   8.070   0.585
 8410SOL     OW35908   7.749   1.664   1.893
 8410SOL    HW135909   7.764   1.645   1.990
 8410SOL    HW235910   7.836   1.684   1.849
 8411SOL     OW35911   4.300   1.200   3.533
 8411SOL    HW135912   4.214   1.244   3.511
 8411SOL    HW235913   4.375   1.265   3.518
 8412SOL     OW35914   3.953   6.174   1.536
 8412SOL    HW135915   4.005   6.144   1.617
 8412SOL    HW235916   3.865   6.127   1.534
 8413SOL     OW35917   8.716   4.921   1.339
 8413SOL    HW135918   8.648   4.991   1.319
 8413SOL    HW235919   8.696   4.839   1.284
 8414SOL     OW35920   9.694   1.495   1.498
 8414SOL    HW135921   9.710   1.406   1.542
 8414SOL    HW235922   9.631   1.483   1.422
 8415SOL     OW35923   1.364   4.378   0.235
 8415SOL    HW135924   1.284   4.344   0.285
 8415SOL    HW235925   1.437   4.310   0.240
 8416SOL     OW35926   8.374   0.744   2.107
 8416SOL    HW135927   8.289   0.694   2.092
 8416SOL    HW235928   8.411   0.721   2.197
 8417SOL     OW35929   9.877   1.824   2.450
 8417SOL    HW135930   9.825   1.863   2.375
 8417SOL    HW235931   9.866   1.725   2.451
 8418SOL     OW35932   9.410   9.700   1.780
 8418SOL    HW135933   9.463   9.785   1.783
 8418SOL    HW235934   9.344   9.704   1.705
 8419SOL     OW35935   8.675   4.420   3.124
 8419SOL    HW135936   8.584   4.437   3.162
 8419SOL    HW235937   8.741   4.483   3.164
 8420SOL     OW35938   7.974   1.273   0.652
 8420SOL    HW135939   7.908   1.348   0.659
 8420SOL    HW235940   7.926   1.186   0.648
 8421SOL     OW35941   8.245   4.756   0.059
 8421SOL    HW135942   8.300   4.679   0.091
 8421SOL    HW235943   8.231   4.748   5.594
 8422SOL     OW35944   2.547   3.272   4.265
 8422SOL    HW135945   2.534   3.358   4.215
 8422SOL    HW235946   2.643   3.263   4.290
 8423SOL     OW35947   5.600   1.441   3.572
 8423SOL    HW135948   5.649   1.498   3.505
 8423SOL    HW235949   5.502   1.460   3.566
 8424SOL     OW35950   8.544   6.728   0.297
 8424SOL    HW135951   8.482   6.650   0.288
 8424SOL    HW235952   8.547   6.778   0.210
 8425SOL     OW35953   8.627   1.947   3.169
 8425SOL    HW135954   8.629   1.883   3.093
 8425SOL    HW235955   8.597   1.900   3.252
 8426SOL     OW35956   7.120   8.355   2.783
 8426SOL    HW135957   7.168   8.429   2.831
 8426SOL    HW235958   7.122   8.373   2.685
 8427SOL     OW35959   4.314   6.418   1.753
 8427SOL    HW135960   4.285   6.512   1.736
 8427SOL    HW235961   4.412   6.409   1.734
 8428SOL     OW35962   1.766   1.067   3.018
 8428SOL    HW135963   1.683   1.027   2.979
 8428SOL    HW235964   1.761   1.063   3.118
 8429SOL     OW35965   6.373   9.792   1.051
 8429SOL    HW135966   6.374   9.872   0.992
 8429SOL    HW235967   6.434   9.722   1.014
 8430SOL     OW35968   3.761   1.746   0.406
 8430SOL    HW135969   3.810   1.833   0.417
 8430SOL    HW235970   3.783   1.706   0.317
 8431SOL     OW35971   1.950   7.559   2.804
 8431SOL    HW135972   2.009   7.630   2.844
 8431SOL    HW235973   2.003   7.475   2.793
 8432SOL     OW35974   3.520   8.505   0.102
 8432SOL    HW135975   3.611   8.547   0.096
 8432SOL    HW235976   3.484   8.515   0.194
 8433SOL     OW35977   8.660   7.453   1.085
 8433SOL    HW135978   8.591   7.383   1.070
 8433SOL    HW235979   8.744   7.428   1.036
 8434SOL     OW35980   9.755   4.046   0.705
 8434SOL    HW135981   9.844   4.035   0.661
 8434SOL    HW235982   9.744   4.142   0.732
 8435SOL     OW35983   4.755   8.621   0.043
 8435SOL    HW135984   4.728   8.628   5.581
 8435SOL    HW235985   4.821   8.692   0.065
 8436SOL     OW35986   2.332   0.602   3.788
 8436SOL    HW135987   2.320   0.699   3.765
 8436SOL    HW235988   2.417   0.569   3.747
 8437SOL     OW35989   9.287   1.974   2.655
 8437SOL    HW135990   9.242   2.061   2.676
 8437SOL    HW235991   9.385   1.982   2.672
 8438SOL     OW35992   1.748   5.947   1.643
 8438SOL    HW135993   1.736   5.870   1.581
 8438SOL    HW235994   1.846   5.967   1.652
 8439SOL     OW35995   3.270   0.668   0.675
 8439SOL    HW135996   3.318   0.755   0.676
 8439SOL    HW235997   3.307   0.610   0.603
 8440SOL     OW35998   1.872   1.791   3.494
 8440SOL    HW135999   1.862   1.856   3.569
 8440SOL    HW236000   1.785   1.784   3.444
 8441SOL     OW36001   8.599   4.981   2.009
 8441SOL    HW136002   8.661   4.909   1.977
 8441SOL    HW236003   8.511   4.971   1.963
 8442SOL     OW36004   7.435   4.768   0.462
 8442SOL    HW136005   7.417   4.812   0.373
 8442SOL    HW236006   7.491   4.687   0.448
 8443SOL     OW36007   3.140   9.486   0.904
 8443SOL    HW136008   3.134   9.396   0.948
 8443SOL    HW236009   3.125   9.475   0.805
 8444SOL     OW36010   6.168   1.196   2.723
 8444SOL    HW136011   6.125   1.279   2.688
 8444SOL    HW236012   6.186   1.207   2.821
 8445SOL     OW36013   0.601   3.695   3.495
 8445SOL    HW136014   0.587   3.683   3.594
 8445SOL    HW236015   0.513   3.719   3.453
 8446SOL     OW36016   1.045   4.475   3.311
 8446SOL    HW136017   0.990   4.501   3.231
 8446SOL    HW236018   1.096   4.554   3.344
 8447SOL     OW36019   1.451   2.933   2.605
 8447SOL    HW136020   1.539   2.895   2.633
 8447SOL    HW236021   1.436   2.915   2.508
 8448SOL     OW36022   3.504   2.722   3.197
 8448SOL    HW136023   3.479   2.763   3.110
 8448SOL    HW236024   3.604   2.725   3.208
 8449SOL     OW36025   0.778   7.706   3.265
 8449SOL    HW136026   0.691   7.684   3.222
 8449SOL    HW236027   0.778   7.803   3.293
 8450SOL     OW36028   4.548   3.363   0.159
 8450SOL    HW136029   4.498   3.439   0.201
 8450SOL    HW236030   4.639   3.395   0.131
 8451SOL     OW36031   3.137   0.815   1.394
 8451SOL    HW136032   3.226   0.785   1.426
 8451SOL    HW236033   3.081   0.736   1.369
 8452SOL     OW36034   4.406   1.298   2.047
 8452SOL    HW136035   4.316   1.335   2.021
 8452SOL    HW236036   4.428   1.220   1.988
 8453SOL     OW36037   0.770   4.912   1.369
 8453SOL    HW136038   0.713   4.830   1.365
 8453SOL    HW236039   0.731   4.977   1.433
 8454SOL     OW36040   0.215   3.217   0.210
 8454SOL    HW136041   0.140   3.185   0.152
 8454SOL    HW236042   0.302   3.197   0.165
 8455SOL     OW36043   2.956   1.143   0.091
 8455SOL    HW136044   2.919   1.235   0.101
 8455SOL    HW236045   3.051   1.148   0.059
 8456SOL     OW36046   1.435   6.371   1.031
 8456SOL    HW136047   1.435   6.320   1.116
 8456SOL    HW236048   1.517   6.428   1.026
 8457SOL     OW36049   9.360   1.583   2.459
 8457SOL    HW136050   9.446   1.625   2.430
 8457SOL    HW236051   9.294   1.655   2.484
 8458SOL     OW36052   2.229   8.194   2.776
 8458SOL    HW136053   2.131   8.186   2.797
 8458SOL    HW236054   2.280   8.202   2.861
 8459SOL     OW36055   1.354   2.571   1.080
 8459SOL    HW136056   1.282   2.547   1.015
 8459SOL    HW236057   1.435   2.516   1.061
 8460SOL     OW36058   8.520   5.877   2.588
 8460SOL    HW136059   8.431   5.905   2.624
 8460SOL    HW236060   8.523   5.778   2.577
 8461SOL     OW36061   0.696   0.766   0.908
 8461SOL    HW136062   0.791   0.751   0.880
 8461SOL    HW236063   0.643   0.682   0.894
 8462SOL     OW36064   4.985   7.581   3.061
 8462SOL    HW136065   4.898   7.549   3.024
 8462SOL    HW236066   4.996   7.548   3.155
 8463SOL     OW36067   1.980   5.872   4.365
 8463SOL    HW136068   1.929   5.957   4.379
 8463SOL    HW236069   1.918   5.794   4.372
 8464SOL     OW36070   0.444   1.741   2.799
 8464SOL    HW136071   0.517   1.698   2.747
 8464SOL    HW236072   0.356   1.721   2.756
 8465SOL     OW36073   4.636   8.126   1.582
 8465SOL    HW136074   4.701   8.201   1.571
 8465SOL    HW236075   4.596   8.103   1.493
 8466SOL     OW36076   4.193   8.947   0.476
 8466SOL    HW136077   4.113   8.972   0.422
 8466SOL    HW236078   4.202   8.848   0.480
 8467SOL     OW36079   3.106   0.535   0.409
 8467SOL    HW136080   3.024   0.532   0.467
 8467SOL    HW236081   3.123   0.629   0.381
 8468SOL     OW36082   8.525   3.736   3.447
 8468SOL    HW136083   8.621   3.745   3.474
 8468SOL    HW236084   8.471   3.709   3.527
 8469SOL     OW36085   1.909   2.980   1.873
 8469SOL    HW136086   1.998   2.939   1.854
 8469SOL    HW236087   1.922   3.074   1.906
 8470SOL     OW36088   3.950   3.519   2.655
 8470SOL    HW136089   3.863   3.517   2.703
 8470SOL    HW236090   4.025   3.510   2.721
 8471SOL     OW36091   7.660   2.562   0.011
 8471SOL    HW136092   7.646   2.645   5.592
 8471SOL    HW236093   7.696   2.490   5.586
 8472SOL     OW36094   4.933   3.573   1.224
 8472SOL    HW136095   4.842   3.552   1.259
 8472SOL    HW236096   4.956   3.511   1.149
 8473SOL     OW36097   9.643   5.211   1.023
 8473SOL    HW136098   9.591   5.270   0.961
 8473SOL    HW236099   9.740   5.213   1.000
 8474SOL     OW36100   6.470   7.124   4.013
 8474SOL    HW136101   6.398   7.178   4.057
 8474SOL    HW236102   6.433   7.078   3.933
 8475SOL     OW36103   8.655   0.538   1.953
 8475SOL    HW136104   8.604   0.494   2.027
 8475SOL    HW236105   8.611   0.623   1.927
 8476SOL     OW36106   8.934   5.192   3.497
 8476SOL    HW136107   8.895   5.266   3.442
 8476SOL    HW236108   9.025   5.218   3.529
 8477SOL     OW36109   7.306   9.781   2.162
 8477SOL    HW136110   7.319   9.805   2.066
 8477SOL    HW236111   7.260   9.693   2.168
 8478SOL     OW36112   7.706   1.188   0.275
 8478SOL    HW136113   7.669   1.221   0.361
 8478SOL    HW236114   7.786   1.243   0.249
 8479SOL     OW36115   8.529   8.478   3.612
 8479SOL    HW136116   8.433   8.471   3.584
 8479SOL    HW236117   8.582   8.404   3.568
 8480SOL     OW36118   9.746   0.530   1.359
 8480SOL    HW136119   9.784   0.445   1.396
 8480SOL    HW236120   9.741   0.525   1.260
 8481SOL     OW36121   7.653   1.322   3.060
 8481SOL    HW136122   7.680   1.236   3.018
 8481SOL    HW236123   7.677   1.398   2.998
 8482SOL     OW36124   2.168   4.768   1.041
 8482SOL    HW136125   2.251   4.717   1.019
 8482SOL    HW236126   2.189   4.837   1.111
 8483SOL     OW36127   8.760   4.255   0.132
 8483SOL    HW136128   8.763   4.260   0.232
 8483SOL    HW236129   8.849   4.226   0.098
 8484SOL     OW36130   3.314   3.209   2.668
 8484SOL    HW136131   3.405   3.203   2.627
 8484SOL    HW236132   3.321   3.197   2.767
 8485SOL     OW36133   0.489   9.950   1.853
 8485SOL    HW136134   0.488   9.967   1.952
 8485SOL    HW236135   0.518   0.033   1.805
 8486SOL     OW36136   2.767   7.512   1.932
 8486SOL    HW136137   2.699   7.579   1.963
 8486SOL    HW236138   2.857   7.554   1.929
 8487SOL     OW36139   8.025   1.408   3.317
 8487SOL    HW136140   8.022   1.335   3.386
 8487SOL    HW236141   7.950   1.395   3.252
 8488SOL     OW36142   9.323   3.382   1.652
 8488SOL    HW136143   9.416   3.398   1.685
 8488SOL    HW236144   9.265   3.356   1.730
 8489SOL     OW36145   0.435   8.316   3.324
 8489SOL    HW136146   0.482   8.400   3.350
 8489SOL    HW236147   0.345   8.338   3.285
 8490SOL     OW36148   2.409   3.325   1.192
 8490SOL    HW136149   2.372   3.233   1.205
 8490SOL    HW236150   2.366   3.368   1.114
 8491SOL     OW36151   1.706   4.496   0.800
 8491SOL    HW136152   1.717   4.554   0.719
 8491SOL    HW236153   1.611   4.467   0.808
 8492SOL     OW36154   9.714   1.293   1.027
 8492SOL    HW136155   9.813   1.289   1.037
 8492SOL    HW236156   9.684   1.388   1.028
 8493SOL     OW36157   8.139   2.553   1.790
 8493SOL    HW136158   8.203   2.557   1.713
 8493SOL    HW236159   8.059   2.609   1.769
 8494SOL     OW36160   0.979   5.290   3.562
 8494SOL    HW136161   1.031   5.374   3.576
 8494SOL    HW236162   0.925   5.299   3.478
 8495SOL     OW36163   6.735   9.434   2.186
 8495SOL    HW136164   6.835   9.427   2.197
 8495SOL    HW236165   6.709   9.391   2.100
 8496SOL     OW36166   0.627   6.462   1.729
 8496SOL    HW136167   0.559   6.506   1.788
 8496SOL    HW236168   0.594   6.465   1.634
 8497SOL     OW36169   8.497   7.632   0.361
 8497SOL    HW136170   8.426   7.635   0.291
 8497SOL    HW236171   8.554   7.714   0.355
 8498SOL     OW36172   8.702   6.529   3.129
 8498SOL    HW136173   8.702   6.562   3.223
 8498SOL    HW236174   8.648   6.445   3.123
 8499SOL     OW36175   2.941   9.348   3.874
 8499SOL    HW136176   3.041   9.358   3.866
 8499SOL    HW236177   2.913   9.372   3.966
 8500SOL     OW36178   8.358   7.826   3.196
 8500SOL    HW136179   8.272   7.778   3.180
 8500SOL    HW236180   8.344   7.924   3.181
 8501SOL     OW36181   2.070   4.899   1.461
 8501SOL    HW136182   2.046   4.917   1.556
 8501SOL    HW236183   1.992   4.919   1.402
 8502SOL     OW36184   8.499   5.479   3.151
 8502SOL    HW136185   8.475   5.382   3.151
 8502SOL    HW236186   8.591   5.491   3.114
 8503SOL     OW36187   4.320   1.039   3.750
 8503SOL    HW136188   4.315   1.101   3.672
 8503SOL    HW236189   4.281   1.084   3.831
 8504SOL     OW36190   2.312   7.840   3.094
 8504SOL    HW136191   2.412   7.831   3.089
 8504SOL    HW236192   2.289   7.926   3.140
 8505SOL     OW36193   0.361   8.322   1.295
 8505SOL    HW136194   0.454   8.351   1.274
 8505SOL    HW236195   0.297   8.394   1.269
 8506SOL     OW36196   0.344   9.180   3.254
 8506SOL    HW136197   0.328   9.081   3.243
 8506SOL    HW236198   0.261   9.223   3.290
 8507SOL     OW36199   2.095   8.925   2.553
 8507SOL    HW136200   2.065   8.854   2.618
 8507SOL    HW236201   2.047   8.914   2.467
 8508SOL     OW36202   7.942   7.068   3.512
 8508SOL    HW136203   7.863   7.075   3.573
 8508SOL    HW236204   8.026   7.059   3.565
 8509SOL     OW36205   3.700   5.924   2.636
 8509SOL    HW136206   3.731   6.016   2.657
 8509SOL    HW236207   3.650   5.887   2.715
 8510SOL     OW36208   9.993   8.787   0.926
 8510SOL    HW136209   9.916   8.747   0.976
 8510SOL    HW236210   0.056   8.831   0.990
 8511SOL     OW36211   6.032   9.862   2.620
 8511SOL    HW136212   6.052   9.913   2.537
 8511SOL    HW236213   6.116   9.824   2.658
 8512SOL     OW36214   7.279   1.890   2.364
 8512SOL    HW136215   7.335   1.952   2.418
 8512SOL    HW236216   7.213   1.843   2.424
 8513SOL     OW36217   9.222   6.257   3.046
 8513SOL    HW136218   9.126   6.265   3.021
 8513SOL    HW236219   9.256   6.166   3.023
 8514SOL     OW36220   3.611   4.831   0.983
 8514SOL    HW136221   3.538   4.883   1.027
 8514SOL    HW236222   3.624   4.863   0.890
 8515SOL     OW36223   3.457   5.982   0.629
 8515SOL    HW136224   3.527   6.021   0.689
 8515SOL    HW236225   3.456   6.032   0.543
 8516SOL     OW36226   2.447   6.864   1.463
 8516SOL    HW136227   2.414   6.784   1.413
 8516SOL    HW236228   2.369   6.915   1.499
 8517SOL     OW36229   7.153   7.487   4.302
 8517SOL    HW136230   7.175   7.405   4.354
 8517SOL    HW236231   7.155   7.466   4.204
 8518SOL     OW36232   9.047   9.534   0.132
 8518SOL    HW136233   9.019   9.503   0.223
 8518SOL    HW236234   9.044   9.634   0.129
 8519SOL     OW36235   7.601   1.678   0.661
 8519SOL    HW136236   7.579   1.745   0.732
 8519SOL    HW236237   7.525   1.614   0.651
 8520SOL     OW36238   2.702   5.962   0.245
 8520SOL    HW136239   2.721   6.057   0.221
 8520SOL    HW236240   2.667   5.914   0.165
 8521SOL     OW36241   3.986   8.283   0.436
 8521SOL    HW136242   4.017   8.205   0.490
 8521SOL    HW236243   3.948   8.250   0.349
 8522SOL     OW36244   9.199   6.726   2.118
 8522SOL    HW136245   9.103   6.742   2.095
 8522SOL    HW236246   9.241   6.811   2.149
 8523SOL     OW36247   9.392   8.840   3.880
 8523SOL    HW136248   9.376   8.861   3.976
 8523SOL    HW236249   9.320   8.881   3.824
 8524SOL     OW36250   2.054   8.399   3.253
 8524SOL    HW136251   2.064   8.344   3.337
 8524SOL    HW236252   1.986   8.470   3.269
 8525SOL     OW36253   0.080   2.760   2.945
 8525SOL    HW136254   0.053   2.724   2.855
 8525SOL    HW236255   9.999   2.793   2.993
 8526SOL     OW36256   7.191   6.580   3.787
 8526SOL    HW136257   7.286   6.610   3.798
 8526SOL    HW236258   7.170   6.571   3.690
 8527SOL     OW36259   9.220   3.454   3.490
 8527SOL    HW136260   9.151   3.476   3.559
 8527SOL    HW236261   9.306   3.431   3.535
 8528SOL     OW36262   2.242   6.998   1.588
 8528SOL    HW136263   2.156   7.032   1.551
 8528SOL    HW236264   2.287   7.071   1.640
 8529SOL     OW36265   6.695   0.348   3.334
 8529SOL    HW136266   6.703   0.397   3.421
 8529SOL    HW236267   6.614   0.291   3.335
 8530SOL     OW36268   1.195   1.706   3.239
 8530SOL    HW136269   1.248   1.720   3.156
 8530SOL    HW236270   1.196   1.789   3.294
 8531SOL     OW36271   0.307   8.639   0.545
 8531SOL    HW136272   0.246   8.642   0.624
 8531SOL    HW236273   0.383   8.702   0.558
 8532SOL     OW36274   2.750   9.762   2.179
 8532SOL    HW136275   2.701   9.679   2.205
 8532SOL    HW236276   2.684   9.834   2.157
 8533SOL     OW36277   4.120   1.254   1.121
 8533SOL    HW136278   4.085   1.161   1.116
 8533SOL    HW236279   4.071   1.311   1.055
 8534SOL     OW36280   7.037   8.823   3.707
 8534SOL    HW136281   7.134   8.822   3.684
 8534SOL    HW236282   6.989   8.757   3.649
 8535SOL     OW36283   9.450   7.620   4.273
 8535SOL    HW136284   9.432   7.597   4.368
 8535SOL    HW236285   9.540   7.586   4.246
 8536SOL     OW36286   0.094   0.034   2.272
 8536SOL    HW136287   0.181   0.080   2.292
 8536SOL    HW236288   0.044   0.086   2.203
 8537SOL     OW36289   1.010   0.104   4.128
 8537SOL    HW136290   1.097   0.055   4.123
 8537SOL    HW236291   1.027   0.201   4.146
 8538SOL     OW36292   6.846   8.361   2.270
 8538SOL    HW136293   6.884   8.274   2.239
 8538SOL    HW236294   6.906   8.436   2.241
 8539SOL     OW36295   4.858   4.147   1.612
 8539SOL    HW136296   4.799   4.180   1.538
 8539SOL    HW236297   4.804   4.137   1.696
 8540SOL     OW36298   0.970   8.997   1.695
 8540SOL    HW136299   0.921   9.081   1.719
 8540SOL    HW236300   0.966   8.984   1.596
 8541SOL     OW36301   5.093   0.107   3.663
 8541SOL    HW136302   5.078   0.206   3.674
 8541SOL    HW236303   5.191   0.088   3.675
 8542SOL     OW36304   9.102   5.553   0.832
 8542SOL    HW136305   9.006   5.530   0.848
 8542SOL    HW236306   9.157   5.469   0.834
 8543SOL     OW36307   8.209   3.042   3.917
 8543SOL    HW136308   8.169   2.954   3.890
 8543SOL    HW236309   8.243   3.090   3.836
 8544SOL     OW36310   8.167   4.113   0.173
 8544SOL    HW136311   8.087   4.052   0.177
 8544SOL    HW236312   8.140   4.205   0.200
 8545SOL     OW36313   9.628   2.798   1.382
 8545SOL    HW136314   9.627   2.761   1.289
 8545SOL    HW236315   9.621   2.898   1.379
 8546SOL     OW36316   1.026   0.706   0.278
 8546SOL    HW136317   1.008   0.615   0.315
 8546SOL    HW236318   1.080   0.759   0.344
 8547SOL     OW36319   7.039   3.667   0.105
 8547SOL    HW136320   7.115   3.702   0.160
 8547SOL    HW236321   6.954   3.712   0.133
 8548SOL     OW36322   8.905   3.280   2.931
 8548SOL    HW136323   8.902   3.250   3.027
 8548SOL    HW236324   8.998   3.310   2.909
 8549SOL     OW36325   0.834   0.682   3.685
 8549SOL    HW136326   0.864   0.593   3.652
 8549SOL    HW236327   0.875   0.699   3.775
 8550SOL     OW36328   3.070   2.140   2.655
 8550SOL    HW136329   3.037   2.079   2.727
 8550SOL    HW236330   3.046   2.104   2.566
 8551SOL     OW36331   7.244   9.819   2.506
 8551SOL    HW136332   7.279   9.865   2.588
 8551SOL    HW236333   7.320   9.775   2.458
 8552SOL     OW36334   9.236   0.580   3.826
 8552SOL    HW136335   9.250   0.668   3.870
 8552SOL    HW236336   9.319   0.554   3.777
 8553SOL     OW36337   0.210   3.740   1.495
 8553SOL    HW136338   0.308   3.729   1.482
 8553SOL    HW236339   0.162   3.664   1.450
 8554SOL     OW36340   3.683   0.074   1.513
 8554SOL    HW136341   3.700   0.080   1.611
 8554SOL    HW236342   3.656   9.981   1.489
 8555SOL     OW36343   5.358   6.888   2.487
 8555SOL    HW136344   5.456   6.881   2.467
 8555SOL    HW236345   5.338   6.980   2.521
 8556SOL     OW36346   9.701   0.060   0.390
 8556SOL    HW136347   9.629   0.111   0.343
 8556SOL    HW236348   9.790   0.091   0.358
 8557SOL     OW36349   2.324   9.741   1.651
 8557SOL    HW136350   2.361   9.649   1.639
 8557SOL    HW236351   2.238   9.749   1.601
 8558SOL     OW36352   9.181   0.409   0.342
 8558SOL    HW136353   9.195   0.322   0.389
 8558SOL    HW236354   9.156   0.480   0.408
 8559SOL     OW36355   0.825   5.126   0.132
 8559SOL    HW136356   0.904   5.184   0.155
 8559SOL    HW236357   0.756   5.182   0.085
 8560SOL     OW36358   1.539   0.720   0.132
 8560SOL    HW136359   1.440   0.713   0.142
 8560SOL    HW236360   1.563   0.738   0.037
 8561SOL     OW36361   7.515   9.052   3.701
 8561SOL    HW136362   7.516   9.143   3.659
 8561SOL    HW236363   7.588   8.997   3.661
 8562SOL     OW36364   6.484   9.344   0.953
 8562SOL    HW136365   6.517   9.436   0.973
 8562SOL    HW236366   6.459   9.338   0.856
 8563SOL     OW36367   3.621   1.875   4.334
 8563SOL    HW136368   3.676   1.936   4.391
 8563SOL    HW236369   3.681   1.811   4.286
 8564SOL     OW36370   4.125   2.374   3.415
 8564SOL    HW136371   4.081   2.377   3.325
 8564SOL    HW236372   4.187   2.451   3.424
 8565SOL     OW36373   0.675   8.251   1.647
 8565SOL    HW136374   0.653   8.233   1.743
 8565SOL    HW236375   0.774   8.254   1.635
 8566SOL     OW36376   0.443   7.257   4.109
 8566SOL    HW136377   0.463   7.313   4.029
 8566SOL    HW236378   0.527   7.212   4.139
 8567SOL     OW36379   2.548   3.310   0.167
 8567SOL    HW136380   2.472   3.373   0.151
 8567SOL    HW236381   2.631   3.345   0.123
 8568SOL     OW36382   9.518   8.745   0.113
 8568SOL    HW136383   9.561   8.685   0.180
 8568SOL    HW236384   9.549   8.839   0.128
 8569SOL     OW36385   1.822   0.978   3.703
 8569SOL    HW136386   1.886   0.942   3.770
 8569SOL    HW236387   1.841   0.940   3.613
 8570SOL     OW36388   3.122   2.953   3.243
 8570SOL    HW136389   3.204   2.918   3.288
 8570SOL    HW236390   3.051   2.883   3.245
 8571SOL     OW36391   9.132   8.636   1.688
 8571SOL    HW136392   9.148   8.551   1.739
 8571SOL    HW236393   9.040   8.670   1.708
 8572SOL     OW36394   9.837   3.731   1.392
 8572SOL    HW136395   9.803   3.747   1.300
 8572SOL    HW236396   9.912   3.666   1.389
 8573SOL     OW36397   1.376   1.641   0.790
 8573SOL    HW136398   1.393   1.733   0.825
 8573SOL    HW236399   1.339   1.647   0.697
 8574SOL     OW36400   4.479   2.888   2.386
 8574SOL    HW136401   4.425   2.812   2.351
 8574SOL    HW236402   4.575   2.876   2.361
 8575SOL     OW36403   7.567   9.932   0.727
 8575SOL    HW136404   7.504   9.859   0.751
 8575SOL    HW236405   7.519   0.003   0.676
 8576SOL     OW36406   5.444   3.041   0.502
 8576SOL    HW136407   5.438   3.134   0.467
 8576SOL    HW236408   5.393   2.979   0.442
 8577SOL     OW36409   9.406   0.169   0.739
 8577SOL    HW136410   9.464   0.101   0.696
 8577SOL    HW236411   9.321   0.180   0.687
 8578SOL     OW36412   7.701   1.487   3.470
 8578SOL    HW136413   7.648   1.523   3.393
 8578SOL    HW236414   7.716   1.559   3.537
 8579SOL     OW36415   2.185   2.316   0.189
 8579SOL    HW136416   2.248   2.266   0.248
 8579SOL    HW236417   2.204   2.414   0.195
 8580SOL     OW36418   9.368   5.495   4.300
 8580SOL    HW136419   9.305   5.572   4.309
 8580SOL    HW236420   9.375   5.470   4.203
 8581SOL     OW36421   9.080   5.217   3.888
 8581SOL    HW136422   9.038   5.297   3.930
 8581SOL    HW236423   9.133   5.167   3.957
 8582SOL     OW36424   7.012   6.850   2.204
 8582SOL    HW136425   7.036   6.907   2.125
 8582SOL    HW236426   7.083   6.781   2.218
 8583SOL     OW36427   3.234   0.163   1.890
 8583SOL    HW136428   3.256   0.135   1.984
 8583SOL    HW236429   3.187   0.088   1.843
 8584SOL     OW36430   2.455   7.112   3.130
 8584SOL    HW136431   2.365   7.069   3.125
 8584SOL    HW236432   2.525   7.041   3.124
 8585SOL     OW36433   9.600   5.989   2.200
 8585SOL    HW136434   9.688   5.975   2.154
 8585SOL    HW236435   9.609   5.965   2.297
 8586SOL     OW36436   2.361   4.040   2.983
 8586SOL    HW136437   2.319   4.068   2.896
 8586SOL    HW236438   2.453   4.005   2.965
 8587SOL     OW36439   2.514   1.399   2.150
 8587SOL    HW136440   2.418   1.382   2.173
 8587SOL    HW236441   2.520   1.448   2.063
 8588SOL     OW36442   3.445   1.162   1.646
 8588SOL    HW136443   3.424   1.164   1.549
 8588SOL    HW236444   3.390   1.092   1.691
 8589SOL     OW36445   2.551   8.366   4.367
 8589SOL    HW136446   2.651   8.364   4.360
 8589SOL    HW236447   2.520   8.287   4.420
 8590SOL     OW36448   7.929   9.808   3.552
 8590SOL    HW136449   7.897   9.888   3.502
 8590SOL    HW236450   8.010   9.771   3.507
 8591SOL     OW36451   0.369   4.288   0.577
 8591SOL    HW136452   0.399   4.378   0.545
 8591SOL    HW236453   0.449   4.230   0.592
 8592SOL     OW36454   2.706   1.608   3.390
 8592SOL    HW136455   2.663   1.521   3.367
 8592SOL    HW236456   2.687   1.675   3.318
 8593SOL     OW36457   7.033   0.395   3.957
 8593SOL    HW136458   7.058   0.446   4.040
 8593SOL    HW236459   6.971   0.321   3.982
 8594SOL     OW36460   0.980   2.223   4.362
 8594SOL    HW136461   0.997   2.202   4.458
 8594SOL    HW236462   1.047   2.289   4.329
 8595SOL     OW36463   0.999   9.068   0.994
 8595SOL    HW136464   0.924   9.091   1.056
 8595SOL    HW236465   1.074   9.028   1.047
 8596SOL     OW36466   0.867   4.858   1.115
 8596SOL    HW136467   0.966   4.852   1.111
 8596SOL    HW236468   0.838   4.870   1.210
 8597SOL     OW36469   3.519   8.703   1.282
 8597SOL    HW136470   3.472   8.653   1.354
 8597SOL    HW236471   3.459   8.774   1.245
 8598SOL     OW36472   9.697   8.422   1.660
 8598SOL    HW136473   9.782   8.402   1.707
 8598SOL    HW236474   9.640   8.480   1.718
 8599SOL     OW36475   9.070   2.196   0.964
 8599SOL    HW136476   9.028   2.105   0.965
 8599SOL    HW236477   9.123   2.208   0.880
 8600SOL     OW36478   1.266   7.558   0.419
 8600SOL    HW136479   1.301   7.649   0.443
 8600SOL    HW236480   1.191   7.534   0.481
 8601SOL     OW36481   9.132   8.967   4.357
 8601SOL    HW136482   9.098   8.989   4.448
 8601SOL    HW236483   9.077   9.014   4.288
 8602SOL     OW36484   0.652   8.032   4.287
 8602SOL    HW136485   0.687   8.121   4.259
 8602SOL    HW236486   0.726   7.964   4.285
 8603SOL     OW36487   0.379   8.803   1.463
 8603SOL    HW136488   0.401   8.854   1.379
 8603SOL    HW236489   0.285   8.770   1.458
 8604SOL     OW36490   9.742   3.292   3.899
 8604SOL    HW136491   9.661   3.351   3.892
 8604SOL    HW236492   9.759   3.271   3.996
 8605SOL     OW36493   2.120   3.531   2.143
 8605SOL    HW136494   2.042   3.532   2.207
 8605SOL    HW236495   2.087   3.517   2.050
 8606SOL     OW36496   2.253   3.313   0.228
 8606SOL    HW136497   2.246   3.410   0.204
 8606SOL    HW236498   2.301   3.303   0.315
 8607SOL     OW36499   1.717   0.355   2.989
 8607SOL    HW136500   1.765   0.430   3.034
 8607SOL    HW236501   1.744   0.268   3.032
 8608SOL     OW36502   3.288   0.548   1.199
 8608SOL    HW136503   3.383   0.581   1.206
 8608SOL    HW236504   3.266   0.494   1.279
 8609SOL     OW36505   9.808   3.195   3.407
 8609SOL    HW136506   9.861   3.141   3.471
 8609SOL    HW236507   9.780   3.281   3.450
 8610SOL     OW36508   7.481   2.280   2.628
 8610SOL    HW136509   7.440   2.342   2.561
 8610SOL    HW236510   7.454   2.308   2.720
 8611SOL     OW36511   4.894   6.268   2.295
 8611SOL    HW136512   4.941   6.327   2.361
 8611SOL    HW236513   4.810   6.232   2.335
 8612SOL     OW36514   9.265   5.328   0.175
 8612SOL    HW136515   9.205   5.408   0.175
 8612SOL    HW236516   9.224   5.254   0.228
 8613SOL     OW36517   9.322   6.501   3.112
 8613SOL    HW136518   9.248   6.553   3.155
 8613SOL    HW236519   9.288   6.410   3.087
 8614SOL     OW36520   5.386   7.308   3.371
 8614SOL    HW136521   5.290   7.292   3.392
 8614SOL    HW236522   5.398   7.317   3.272
 8615SOL     OW36523   0.902   7.668   3.634
 8615SOL    HW136524   0.827   7.603   3.629
 8615SOL    HW236525   0.961   7.658   3.554
 8616SOL     OW36526   7.729   4.879   0.173
 8616SOL    HW136527   7.792   4.940   0.222
 8616SOL    HW236528   7.782   4.808   0.127
 8617SOL     OW36529   1.337   0.100   3.046
 8617SOL    HW136530   1.379   0.088   2.956
 8617SOL    HW236531   1.243   0.134   3.034
 8618SOL     OW36532   8.961   6.008   0.185
 8618SOL    HW136533   8.945   6.099   0.222
 8618SOL    HW236534   9.050   5.974   0.217
 8619SOL     OW36535   0.014   4.337   0.583
 8619SOL    HW136536   0.051   4.426   0.555
 8619SOL    HW236537   0.084   4.285   0.631
 8620SOL     OW36538   9.809   4.555   2.811
 8620SOL    HW136539   9.888   4.606   2.846
 8620SOL    HW236540   9.797   4.574   2.714
 8621SOL     OW36541   8.952   0.190   3.886
 8621SOL    HW136542   9.005   0.135   3.950
 8621SOL    HW236543   8.856   0.193   3.917
 8622SOL     OW36544   2.351   0.495   4.039
 8622SOL    HW136545   2.343   0.541   3.951
 8622SOL    HW236546   2.286   0.419   4.042
 8623SOL     OW36547   4.631   8.686   3.945
 8623SOL    HW136548   4.704   8.698   4.013
 8623SOL    HW236549   4.625   8.768   3.888
 8624SOL     OW36550   9.267   2.885   1.168
 8624SOL    HW136551   9.276   2.794   1.128
 8624SOL    HW236552   9.348   2.940   1.143
 8625SOL     OW36553   4.312   7.310   3.262
 8625SOL    HW136554   4.315   7.210   3.259
 8625SOL    HW236555   4.231   7.342   3.213
 8626SOL     OW36556   0.704   7.187   4.176
 8626SOL    HW136557   0.750   7.247   4.110
 8626SOL    HW236558   0.697   7.234   4.264
 8627SOL     OW36559   0.284   4.818   2.030
 8627SOL    HW136560   0.247   4.851   2.116
 8627SOL    HW236561   0.248   4.874   1.955
 8628SOL     OW36562   4.307   7.830   3.112
 8628SOL    HW136563   4.397   7.822   3.154
 8628SOL    HW236564   4.276   7.925   3.118
 8629SOL     OW36565   8.541   2.943   2.470
 8629SOL    HW136566   8.604   2.903   2.403
 8629SOL    HW236567   8.483   3.011   2.425
 8630SOL     OW36568   4.378   1.793   2.051
 8630SOL    HW136569   4.421   1.707   2.024
 8630SOL    HW236570   4.328   1.832   1.974
 8631SOL     OW36571   3.633   9.821   2.876
 8631SOL    HW136572   3.663   9.728   2.854
 8631SOL    HW236573   3.701   9.887   2.842
 8632SOL     OW36574   8.680   6.607   3.386
 8632SOL    HW136575   8.743   6.652   3.450
 8632SOL    HW236576   8.670   6.511   3.412
 8633SOL     OW36577   8.107   7.335   0.494
 8633SOL    HW136578   8.050   7.408   0.457
 8633SOL    HW236579   8.182   7.375   0.546
 8634SOL     OW36580   4.391   8.686   1.921
 8634SOL    HW136581   4.414   8.599   1.964
 8634SOL    HW236582   4.332   8.669   1.842
 8635SOL     OW36583   9.202   0.363   4.377
 8635SOL    HW136584   9.153   0.419   4.443
 8635SOL    HW236585   9.152   0.362   4.290
 8636SOL     OW36586   0.771   1.027   1.917
 8636SOL    HW136587   0.758   1.108   1.975
 8636SOL    HW236588   0.806   0.952   1.972
 8637SOL     OW36589   9.871   3.224   0.756
 8637SOL    HW136590   9.895   3.282   0.678
 8637SOL    HW236591   9.773   3.202   0.752
 8638SOL     OW36592   8.134   4.577   4.161
 8638SOL    HW136593   8.111   4.625   4.246
 8638SOL    HW236594   8.225   4.535   4.171
 8639SOL     OW36595   1.139   4.834   1.113
 8639SOL    HW136596   1.204   4.764   1.141
 8639SOL    HW236597   1.183   4.924   1.115
 8640SOL     OW36598   8.422   1.607   1.278
 8640SOL    HW136599   8.521   1.592   1.270
 8640SOL    HW236600   8.393   1.585   1.371
 8641SOL     OW36601   6.411   7.690   3.811
 8641SOL    HW136602   6.351   7.762   3.776
 8641SOL    HW236603   6.359   7.628   3.870
 8642SOL     OW36604   9.085   5.936   0.679
 8642SOL    HW136605   9.098   5.855   0.622
 8642SOL    HW236606   9.170   5.958   0.726
 8643SOL     OW36607   5.745   8.895   1.579
 8643SOL    HW136608   5.651   8.879   1.549
 8643SOL    HW236609   5.750   8.982   1.629
 8644SOL     OW36610   6.225   9.897   3.522
 8644SOL    HW136611   6.246   9.823   3.459
 8644SOL    HW236612   6.309   9.943   3.549
 8645SOL     OW36613   5.413   9.515   3.040
 8645SOL    HW136614   5.385   9.602   2.999
 8645SOL    HW236615   5.333   9.463   3.068
 8646SOL     OW36616   5.252   9.522   3.411
 8646SOL    HW136617   5.262   9.427   3.383
 8646SOL    HW236618   5.156   9.542   3.430
 8647SOL     OW36619   1.416   9.753   0.580
 8647SOL    HW136620   1.457   9.686   0.518
 8647SOL    HW236621   1.466   9.753   0.666
 8648SOL     OW36622   4.543   4.734   0.712
 8648SOL    HW136623   4.587   4.744   0.802
 8648SOL    HW236624   4.523   4.825   0.675
 8649SOL     OW36625   1.857   6.833   3.656
 8649SOL    HW136626   1.851   6.889   3.573
 8649SOL    HW236627   1.822   6.741   3.637
 8650SOL     OW36628   1.916   1.520   3.457
 8650SOL    HW136629   1.944   1.468   3.538
 8650SOL    HW236630   1.901   1.616   3.483
 8651SOL     OW36631   8.453   8.720   3.021
 8651SOL    HW136632   8.387   8.676   3.083
 8651SOL    HW236633   8.404   8.765   2.947
 8652SOL     OW36634   3.205   0.310   2.578
 8652SOL    HW136635   3.149   0.315   2.494
 8652SOL    HW236636   3.146   0.324   2.658
 8653SOL     OW36637   7.274   1.879   2.087
 8653SOL    HW136638   7.275   1.901   2.184
 8653SOL    HW236639   7.359   1.832   2.062
 8654SOL     OW36640   1.795   7.265   3.484
 8654SOL    HW136641   1.750   7.317   3.412
 8654SOL    HW236642   1.725   7.222   3.542
 8655SOL     OW36643   0.111   5.103   3.451
 8655SOL    HW136644   0.034   5.044   3.426
 8655SOL    HW236645   0.078   5.197   3.461
 8656SOL     OW36646   7.846   4.179   0.877
 8656SOL    HW136647   7.801   4.171   0.788
 8656SOL    HW236648   7.889   4.269   0.885
 8657SOL     OW36649   9.155   3.982   0.093
 8657SOL    HW136650   9.111   3.942   0.013
 8657SOL    HW236651   9.124   3.936   0.175
 8658SOL     OW36652   2.861   8.367   1.944
 8658SOL    HW136653   2.791   8.429   1.908
 8658SOL    HW236654   2.822   8.276   1.958
 8659SOL     OW36655   7.275   1.378   0.820
 8659SOL    HW136656   7.189   1.352   0.776
 8659SOL    HW236657   7.261   1.461   0.875
 8660SOL     OW36658   7.755   2.293   2.682
 8660SOL    HW136659   7.660   2.276   2.657
 8660SOL    HW236660   7.776   2.391   2.671
 8661SOL     OW36661   9.067   3.128   2.485
 8661SOL    HW136662   9.138   3.176   2.433
 8661SOL    HW236663   9.099   3.112   2.578
 8662SOL     OW36664   0.565   5.339   0.687
 8662SOL    HW136665   0.631   5.368   0.757
 8662SOL    HW236666   0.604   5.354   0.596
 8663SOL     OW36667   4.012   2.893   2.767
 8663SOL    HW136668   4.072   2.961   2.725
 8663SOL    HW236669   3.987   2.823   2.700
 8664SOL     OW36670   8.358   5.942   0.798
 8664SOL    HW136671   8.432   6.009   0.795
 8664SOL    HW236672   8.326   5.924   0.705
 8665SOL     OW36673   0.432   1.516   0.571
 8665SOL    HW136674   0.415   1.609   0.539
 8665SOL    HW236675   0.365   1.453   0.530
 8666SOL     OW36676   0.874   3.386   0.353
 8666SOL    HW136677   0.816   3.442   0.412
 8666SOL    HW236678   0.918   3.445   0.285
 8667SOL     OW36679   0.621   8.397   1.245
 8667SOL    HW136680   0.616   8.480   1.300
 8667SOL    HW236681   0.623   8.421   1.148
 8668SOL     OW36682   8.562   1.815   3.835
 8668SOL    HW136683   8.520   1.765   3.759
 8668SOL    HW236684   8.497   1.882   3.871
 8669SOL     OW36685   8.661   2.880   0.224
 8669SOL    HW136686   8.659   2.791   0.180
 8669SOL    HW236687   8.756   2.911   0.232
 8670SOL     OW36688   3.741   9.846   0.450
 8670SOL    HW136689   3.805   9.920   0.433
 8670SOL    HW236690   3.776   9.761   0.411
 8671SOL     OW36691   4.709   1.923   3.828
 8671SOL    HW136692   4.695   1.894   3.922
 8671SOL    HW236693   4.634   1.982   3.799
 8672SOL     OW36694   3.964   4.164   3.994
 8672SOL    HW136695   4.018   4.084   4.018
 8672SOL    HW236696   4.025   4.242   3.978
 8673SOL     OW36697   3.567   5.320   1.588
 8673SOL    HW136698   3.612   5.230   1.588
 8673SOL    HW236699   3.626   5.386   1.540
 8674SOL     OW36700   2.862   6.437   0.617
 8674SOL    HW136701   2.811   6.516   0.583
 8674SOL    HW236702   2.822   6.353   0.580
 8675SOL     OW36703   1.860   1.906   0.165
 8675SOL    HW136704   1.897   1.986   0.117
 8675SOL    HW236705   1.846   1.929   0.261
 8676SOL     OW36706   3.316   1.227   0.360
 8676SOL    HW136707   3.399   1.253   0.409
 8676SOL    HW236708   3.236   1.246   0.417
 8677SOL     OW36709   0.836   6.103   0.901
 8677SOL    HW136710   0.909   6.154   0.857
 8677SOL    HW236711   0.875   6.029   0.957
 8678SOL     OW36712   9.217   1.172   1.363
 8678SOL    HW136713   9.172   1.259   1.384
 8678SOL    HW236714   9.296   1.189   1.304
 8679SOL     OW36715   3.406   0.595   0.137
 8679SOL    HW136716   3.436   0.688   0.154
 8679SOL    HW236717   3.314   0.596   0.098
 8680SOL     OW36718   9.330   2.872   2.816
 8680SOL    HW136719   9.427   2.872   2.839
 8680SOL    HW236720   9.308   2.955   2.764
 8681SOL     OW36721   3.293   4.601   1.217
 8681SOL    HW136722   3.332   4.680   1.265
 8681SOL    HW236723   3.356   4.572   1.145
 8682SOL     OW36724   4.162   7.229   2.922
 8682SOL    HW136725   4.134   7.305   2.981
 8682SOL    HW236726   4.257   7.243   2.893
 8683SOL     OW36727   4.485   7.332   1.305
 8683SOL    HW136728   4.408   7.323   1.368
 8683SOL    HW236729   4.503   7.244   1.260
 8684SOL     OW36730   1.103   5.052   3.621
 8684SOL    HW136731   1.055   5.137   3.599
 8684SOL    HW236732   1.036   4.980   3.637
 8685SOL     OW36733   3.242   3.731   0.898
 8685SOL    HW136734   3.245   3.823   0.935
 8685SOL    HW236735   3.148   3.704   0.881
 8686SOL     OW36736   4.036   2.720   1.952
 8686SOL    HW136737   4.104   2.792   1.935
 8686SOL    HW236738   4.001   2.729   2.046
 8687SOL     OW36739   3.937   2.730   1.066
 8687SOL    HW136740   3.841   2.718   1.093
 8687SOL    HW236741   3.961   2.661   0.998
 8688SOL     OW36742   3.023   0.950   3.341
 8688SOL    HW136743   2.963   0.871   3.331
 8688SOL    HW236744   2.993   1.006   3.418
 8689SOL     OW36745   4.311   4.721   0.034
 8689SOL    HW136746   4.260   4.682   0.110
 8689SOL    HW236747   4.284   4.817   0.021
 8690SOL     OW36748   7.923   1.692   0.077
 8690SOL    HW136749   7.972   1.779   0.071
 8690SOL    HW236750   7.987   1.617   0.066
 8691SOL     OW36751   9.288   9.575   2.006
 8691SOL    HW136752   9.321   9.488   2.042
 8691SOL    HW236753   9.346   9.604   1.930
 8692SOL     OW36754   3.010   7.895   3.713
 8692SOL    HW136755   2.983   7.991   3.709
 8692SOL    HW236756   3.042   7.873   3.805
 8693SOL     OW36757   5.373   0.333   1.592
 8693SOL    HW136758   5.382   0.403   1.522
 8693SOL    HW236759   5.460   0.286   1.603
 8694SOL     OW36760   8.235   5.212   0.750
 8694SOL    HW136761   8.246   5.114   0.731
 8694SOL    HW236762   8.321   5.248   0.787
 8695SOL     OW36763   1.277   4.244   3.598
 8695SOL    HW136764   1.247   4.338   3.615
 8695SOL    HW236765   1.240   4.183   3.669
 8696SOL     OW36766   8.848   3.428   2.359
 8696SOL    HW136767   8.868   3.472   2.447
 8696SOL    HW236768   8.890   3.338   2.357
 8697SOL     OW36769   9.027   2.885   1.579
 8697SOL    HW136770   9.039   2.930   1.667
 8697SOL    HW236771   9.116   2.873   1.535
 8698SOL     OW36772   8.405   3.825   3.924
 8698SOL    HW136773   8.330   3.800   3.985
 8698SOL    HW236774   8.403   3.767   3.843
 8699SOL     OW36775   2.036   9.820   0.383
 8699SOL    HW136776   2.097   9.877   0.439
 8699SOL    HW236777   1.944   9.822   0.421
 8700SOL     OW36778   6.346   7.167   1.978
 8700SOL    HW136779   6.342   7.126   2.069
 8700SOL    HW236780   6.261   7.147   1.929
 8701SOL     OW36781   0.741   8.122   2.745
 8701SOL    HW136782   0.642   8.139   2.749
 8701SOL    HW236783   0.782   8.182   2.676
 8702SOL     OW36784   1.991   4.575   4.337
 8702SOL    HW136785   1.993   4.670   4.370
 8702SOL    HW236786   1.896   4.546   4.327
 8703SOL     OW36787   8.310   2.528   1.569
 8703SOL    HW136788   8.380   2.469   1.530
 8703SOL    HW236789   8.354   2.606   1.615
 8704SOL     OW36790   1.596   7.139   3.628
 8704SOL    HW136791   1.615   7.179   3.718
 8704SOL    HW236792   1.582   7.041   3.638
 8705SOL     OW36793   2.203   6.072   3.051
 8705SOL    HW136794   2.106   6.080   3.031
 8705SOL    HW236795   2.238   5.987   3.010
 8706SOL     OW36796   5.981   0.435   4.240
 8706SOL    HW136797   6.068   0.482   4.225
 8706SOL    HW236798   5.997   0.350   4.291
 8707SOL     OW36799   5.149   0.161   3.088
 8707SOL    HW136800   5.069   0.102   3.081
 8707SOL    HW236801   5.232   0.106   3.091
 8708SOL     OW36802   2.448   1.011   3.142
 8708SOL    HW136803   2.410   1.083   3.199
 8708SOL    HW236804   2.541   0.990   3.173
 8709SOL     OW36805   8.674   9.792   1.949
 8709SOL    HW136806   8.716   9.715   1.901
 8709SOL    HW236807   8.743   9.862   1.965
 8710SOL     OW36808   7.864   1.004   0.900
 8710SOL    HW136809   7.846   1.026   0.804
 8710SOL    HW236810   7.777   0.991   0.948
 8711SOL     OW36811   9.867   1.147   0.241
 8711SOL    HW136812   9.875   1.126   0.338
 8711SOL    HW236813   9.922   1.227   0.220
 8712SOL     OW36814   2.154   9.501   2.444
 8712SOL    HW136815   2.080   9.436   2.458
 8712SOL    HW236816   2.165   9.520   2.347
 8713SOL     OW36817   7.551   0.496   0.248
 8713SOL    HW136818   7.544   0.445   0.334
 8713SOL    HW236819   7.460   0.515   0.213
 8714SOL     OW36820   2.383   2.180   0.340
 8714SOL    HW136821   2.425   2.217   0.422
 8714SOL    HW236822   2.368   2.081   0.352
 8715SOL     OW36823   3.864   4.877   0.627
 8715SOL    HW136824   3.836   4.784   0.599
 8715SOL    HW236825   3.940   4.907   0.569
 8716SOL     OW36826   6.293   0.892   2.225
 8716SOL    HW136827   6.291   0.909   2.323
 8716SOL    HW236828   6.345   0.808   2.206
 8717SOL     OW36829   0.515   4.960   1.026
 8717SOL    HW136830   0.431   5.012   1.013
 8717SOL    HW236831   0.590   5.023   1.048
 8718SOL     OW36832   2.435   3.994   3.689
 8718SOL    HW136833   2.346   4.034   3.707
 8718SOL    HW236834   2.507   4.049   3.732
 8719SOL     OW36835   9.902   7.698   4.253
 8719SOL    HW136836   9.826   7.632   4.254
 8719SOL    HW236837   9.866   7.790   4.240
 8720SOL     OW36838   3.725   9.381   3.005
 8720SOL    HW136839   3.815   9.350   3.037
 8720SOL    HW236840   3.667   9.301   2.991
 8721SOL     OW36841   3.619   5.748   2.132
 8721SOL    HW136842   3.624   5.709   2.040
 8721SOL    HW236843   3.659   5.684   2.197
 8722SOL     OW36844   7.906   7.225   2.742
 8722SOL    HW136845   7.915   7.301   2.806
 8722SOL    HW236846   7.989   7.168   2.745
 8723SOL     OW36847   2.828   1.315   1.069
 8723SOL    HW136848   2.789   1.230   1.105
 8723SOL    HW236849   2.810   1.389   1.134
 8724SOL     OW36850   4.343   3.233   0.030
 8724SOL    HW136851   4.343   3.251   5.565
 8724SOL    HW236852   4.418   3.283   0.073
 8725SOL     OW36853   0.589   1.401   2.982
 8725SOL    HW136854   0.584   1.388   2.883
 8725SOL    HW236855   0.558   1.493   3.005
 8726SOL     OW36856   9.585   2.735   3.715
 8726SOL    HW136857   9.673   2.715   3.758
 8726SOL    HW236858   9.551   2.824   3.748
 8727SOL     OW36859   4.584   5.746   1.060
 8727SOL    HW136860   4.554   5.766   1.153
 8727SOL    HW236861   4.525   5.794   0.995
 8728SOL     OW36862   6.799   8.060   3.313
 8728SOL    HW136863   6.770   8.035   3.405
 8728SOL    HW236864   6.800   8.160   3.304
 8729SOL     OW36865   0.145   4.681   4.145
 8729SOL    HW136866   0.200   4.728   4.077
 8729SOL    HW236867   0.204   4.640   4.214
 8730SOL     OW36868   9.972   7.303   3.360
 8730SOL    HW136869   9.930   7.219   3.323
 8730SOL    HW236870   9.969   7.300   3.460
 8731SOL     OW36871   4.061   2.804   3.265
 8731SOL    HW136872   4.084   2.809   3.362
 8731SOL    HW236873   4.044   2.896   3.229
 8732SOL     OW36874   0.261   7.992   2.673
 8732SOL    HW136875   0.166   8.024   2.667
 8732SOL    HW236876   0.264   7.895   2.649
 8733SOL     OW36877   2.584   0.731   4.051
 8733SOL    HW136878   2.579   0.633   4.069
 8733SOL    HW236879   2.578   0.782   4.137
 8734SOL     OW36880   1.264   4.032   2.465
 8734SOL    HW136881   1.231   4.016   2.372
 8734SOL    HW236882   1.264   4.130   2.485
 8735SOL     OW36883   1.304   3.601   2.609
 8735SOL    HW136884   1.264   3.691   2.627
 8735SOL    HW236885   1.382   3.587   2.669
 8736SOL     OW36886   7.682   9.158   0.339
 8736SOL    HW136887   7.771   9.205   0.336
 8736SOL    HW236888   7.611   9.220   0.306
 8737SOL     OW36889   0.996   0.968   3.065
 8737SOL    HW136890   1.041   1.024   3.134
 8737SOL    HW236891   0.966   0.882   3.105
 8738SOL     OW36892   2.353   7.318   4.066
 8738SOL    HW136893   2.400   7.343   4.151
 8738SOL    HW236894   2.416   7.269   4.006
 8739SOL     OW36895   3.691   4.027   1.797
 8739SOL    HW136896   3.676   3.952   1.861
 8739SOL    HW236897   3.742   4.100   1.842
 8740SOL     OW36898   8.269   8.746   2.142
 8740SOL    HW136899   8.303   8.838   2.121
 8740SOL    HW236900   8.346   8.682   2.144
 8741SOL     OW36901   0.062   2.866   0.384
 8741SOL    HW136902   0.133   2.835   0.447
 8741SOL    HW236903   0.057   2.966   0.386
 8742SOL     OW36904   1.396   0.232   0.592
 8742SOL    HW136905   1.388   0.150   0.536
 8742SOL    HW236906   1.486   0.273   0.580
 8743SOL     OW36907   3.111   4.488   3.991
 8743SOL    HW136908   3.119   4.562   3.925
 8743SOL    HW236909   3.180   4.418   3.971
 8744SOL     OW36910   7.825   8.485   1.201
 8744SOL    HW136911   7.799   8.389   1.190
 8744SOL    HW236912   7.787   8.539   1.126
 8745SOL     OW36913   3.206   2.538   4.149
 8745SOL    HW136914   3.253   2.580   4.071
 8745SOL    HW236915   3.253   2.454   4.175
 8746SOL     OW36916   2.009   9.412   0.548
 8746SOL    HW136917   1.914   9.433   0.527
 8746SOL    HW236918   2.021   9.313   0.555
 8747SOL     OW36919   1.208   8.828   0.441
 8747SOL    HW136920   1.140   8.863   0.377
 8747SOL    HW236921   1.289   8.887   0.440
 8748SOL     OW36922   8.242   0.349   4.151
 8748SOL    HW136923   8.252   0.360   4.052
 8748SOL    HW236924   8.311   0.285   4.184
 8749SOL     OW36925   1.262   9.576   2.182
 8749SOL    HW136926   1.278   9.480   2.159
 8749SOL    HW236927   1.172   9.586   2.223
 8750SOL     OW36928   9.765   0.494   1.086
 8750SOL    HW136929   9.698   0.526   1.019
 8750SOL    HW236930   9.849   0.549   1.077
 8751SOL     OW36931   1.889   9.295   2.769
 8751SOL    HW136932   1.967   9.336   2.816
 8751SOL    HW236933   1.810   9.356   2.775
 8752SOL     OW36934   4.777   3.685   3.425
 8752SOL    HW136935   4.681   3.668   3.445
 8752SOL    HW236936   4.803   3.776   3.459
 8753SOL     OW36937   1.408   7.951   2.540
 8753SOL    HW136938   1.443   7.857   2.540
 8753SOL    HW236939   1.408   7.986   2.447
 8754SOL     OW36940   1.122   9.362   4.082
 8754SOL    HW136941   1.044   9.424   4.094
 8754SOL    HW236942   1.195   9.410   4.033
 8755SOL     OW36943   7.946   9.888   2.948
 8755SOL    HW136944   7.847   9.893   2.936
 8755SOL    HW236945   7.967   9.833   3.029
 8756SOL     OW36946   8.396   6.563   0.741
 8756SOL    HW136947   8.390   6.657   0.706
 8756SOL    HW236948   8.323   6.548   0.808
 8757SOL     OW36949   9.262   8.844   2.448
 8757SOL    HW136950   9.271   8.756   2.401
 8757SOL    HW236951   9.328   8.848   2.523
 8758SOL     OW36952   3.586   4.820   2.191
 8758SOL    HW136953   3.634   4.804   2.277
 8758SOL    HW236954   3.570   4.918   2.179
 8759SOL     OW36955   3.863   3.073   1.418
 8759SOL    HW136956   3.871   3.149   1.483
 8759SOL    HW236957   3.927   3.001   1.443
 8760SOL     OW36958   8.377   7.579   1.194
 8760SOL    HW136959   8.352   7.511   1.264
 8760SOL    HW236960   8.417   7.532   1.116
 8761SOL     OW36961   5.910   7.004   3.561
 8761SOL    HW136962   5.913   7.073   3.633
 8761SOL    HW236963   5.873   6.919   3.598
 8762SOL     OW36964   5.253   0.885   4.159
 8762SOL    HW136965   5.305   0.800   4.170
 8762SOL    HW236966   5.314   0.963   4.169
 8763SOL     OW36967   7.767   1.118   2.405
 8763SOL    HW136968   7.771   1.032   2.355
 8763SOL    HW236969   7.841   1.121   2.472
 8764SOL     OW36970   9.079   9.627   3.896
 8764SOL    HW136971   9.041   9.718   3.914
 8764SOL    HW236972   9.016   9.558   3.931
 8765SOL     OW36973   0.885   2.473   0.627
 8765SOL    HW136974   0.918   2.556   0.583
 8765SOL    HW236975   0.865   2.404   0.558
 8766SOL     OW36976   9.913   8.367   3.900
 8766SOL    HW136977   9.869   8.457   3.901
 8766SOL    HW236978   0.010   8.376   3.920
 8767SOL     OW36979   0.339   6.285   0.504
 8767SOL    HW136980   0.403   6.293   0.428
 8767SOL    HW236981   0.346   6.193   0.543
 8768SOL     OW36982   2.365   6.327   0.196
 8768SOL    HW136983   2.287   6.327   0.133
 8768SOL    HW236984   2.362   6.245   0.253
 8769SOL     OW36985   7.005   9.082   3.608
 8769SOL    HW136986   6.997   8.991   3.651
 8769SOL    HW236987   7.070   9.137   3.660
 8770SOL     OW36988   9.724   3.827   0.869
 8770SOL    HW136989   9.754   3.751   0.812
 8770SOL    HW236990   9.734   3.913   0.818
 8771SOL     OW36991   0.834   9.997   0.298
 8771SOL    HW136992   0.907   9.947   0.251
 8771SOL    HW236993   0.826   9.964   0.391
 8772SOL     OW36994   4.331   0.967   3.366
 8772SOL    HW136995   4.431   0.970   3.363
 8772SOL    HW236996   4.298   1.034   3.433
 8773SOL     OW36997   4.468   0.059   3.230
 8773SOL    HW136998   4.502   0.078   3.322
 8773SOL    HW236999   4.399   9.987   3.234
 8774SOL     OW37000   4.344   6.503   1.334
 8774SOL    HW137001   4.370   6.433   1.400
 8774SOL    HW237002   4.251   6.486   1.303
 8775SOL     OW37003   1.169   2.512   1.760
 8775SOL    HW137004   1.145   2.436   1.821
 8775SOL    HW237005   1.177   2.596   1.814
 8776SOL     OW37006   8.731   0.791   3.407
 8776SOL    HW137007   8.687   0.703   3.425
 8776SOL    HW237008   8.827   0.788   3.436
 8777SOL     OW37009   5.401   8.446   2.951
 8777SOL    HW137010   5.474   8.394   2.993
 8777SOL    HW237011   5.333   8.384   2.913
 8778SOL     OW37012   5.011   4.409   2.007
 8778SOL    HW137013   5.095   4.356   1.998
 8778SOL    HW237014   5.009   4.454   2.097
 8779SOL     OW37015   7.490   7.842   3.101
 8779SOL    HW137016   7.543   7.765   3.136
 8779SOL    HW237017   7.552   7.909   3.060
 8780SOL     OW37018   4.143   9.653   2.355
 8780SOL    HW137019   4.189   9.672   2.268
 8780SOL    HW237020   4.059   9.601   2.338
 8781SOL     OW37021   8.817   3.775   0.645
 8781SOL    HW137022   8.749   3.778   0.718
 8781SOL    HW237023   8.878   3.697   0.659
 8782SOL     OW37024   1.020   7.215   1.878
 8782SOL    HW137025   1.005   7.117   1.891
 8782SOL    HW237026   0.947   7.252   1.820
 8783SOL     OW37027   4.775   6.114   1.493
 8783SOL    HW137028   4.836   6.158   1.559
 8783SOL    HW237029   4.795   6.148   1.402
 8784SOL     OW37030   1.203   8.629   1.625
 8784SOL    HW137031   1.196   8.725   1.648
 8784SOL    HW237032   1.296   8.609   1.593
 8785SOL     OW37033   1.420   6.140   3.495
 8785SOL    HW137034   1.331   6.180   3.471
 8785SOL    HW237035   1.493   6.204   3.470
 8786SOL     OW37036   5.048   1.573   3.412
 8786SOL    HW137037   5.051   1.630   3.494
 8786SOL    HW237038   5.126   1.595   3.353
 8787SOL     OW37039   1.944   6.576   1.352
 8787SOL    HW137040   1.972   6.668   1.326
 8787SOL    HW237041   1.845   6.568   1.340
 8788SOL     OW37042   9.023   4.611   2.510
 8788SOL    HW137043   9.057   4.531   2.460
 8788SOL    HW237044   9.054   4.606   2.605
 8789SOL     OW37045   6.926   9.203   3.904
 8789SOL    HW137046   6.958   9.287   3.859
 8789SOL    HW237047   7.005   9.152   3.939
 8790SOL     OW37048   3.278   5.573   2.430
 8790SOL    HW137049   3.302   5.526   2.345
 8790SOL    HW237050   3.179   5.583   2.436
 8791SOL     OW37051   4.126   3.251   3.425
 8791SOL    HW137052   4.066   3.197   3.365
 8791SOL    HW237053   4.175   3.189   3.486
 8792SOL     OW37054   7.397   1.368   3.158
 8792SOL    HW137055   7.486   1.344   3.118
 8792SOL    HW237056   7.325   1.341   3.094
 8793SOL     OW37057   9.606   2.863   2.879
 8793SOL    HW137058   9.641   2.901   2.794
 8793SOL    HW237059   9.682   2.850   2.943
 8794SOL     OW37060   8.964   5.079   2.843
 8794SOL    HW137061   9.000   5.054   2.933
 8794SOL    HW237062   8.864   5.079   2.847
 8795SOL     OW37063   8.368   1.661   1.018
 8795SOL    HW137064   8.389   1.650   1.115
 8795SOL    HW237065   8.453   1.661   0.965
 8796SOL     OW37066   4.724   1.994   1.664
 8796SOL    HW137067   4.758   1.998   1.758
 8796SOL    HW237068   4.792   2.035   1.602
 8797SOL     OW37069   9.218   6.837   1.704
 8797SOL    HW137070   9.259   6.766   1.761
 8797SOL    HW237071   9.118   6.829   1.708
 8798SOL     OW37072   7.743   9.716   0.151
 8798SOL    HW137073   7.739   9.648   0.078
 8798SOL    HW237074   7.802   9.791   0.123
 8799SOL     OW37075   2.336   6.489   1.118
 8799SOL    HW137076   2.265   6.531   1.061
 8799SOL    HW237077   2.419   6.477   1.064
 8800SOL     OW37078   6.298   0.563   2.555
 8800SOL    HW137079   6.322   0.528   2.464
 8800SOL    HW237080   6.340   0.505   2.625
 8801SOL     OW37081   1.131   2.797   1.482
 8801SOL    HW137082   1.193   2.724   1.513
 8801SOL    HW237083   1.144   2.878   1.539
 8802SOL     OW37084   2.311   5.911   3.492
 8802SOL    HW137085   2.292   5.981   3.422
 8802SOL    HW237086   2.229   5.897   3.548
 8803SOL     OW37087   7.127   0.639   0.889
 8803SOL    HW137088   7.169   0.727   0.912
 8803SOL    HW237089   7.031   0.654   0.863
 8804SOL     OW37090   0.094   1.645   0.930
 8804SOL    HW137091   0.077   1.743   0.922
 8804SOL    HW237092   0.144   1.627   1.015
 8805SOL     OW37093   9.495   0.185   0.253
 8805SOL    HW137094   9.514   0.163   0.157
 8805SOL    HW237095   9.431   0.117   0.290
 8806SOL     OW37096   3.152   9.923   1.768
 8806SOL    HW137097   3.113   9.908   1.859
 8806SOL    HW237098   3.144   9.839   1.714
 8807SOL     OW37099   3.416   6.390   3.569
 8807SOL    HW137100   3.403   6.421   3.663
 8807SOL    HW237101   3.464   6.461   3.517
 8808SOL     OW37102   2.161   6.320   2.739
 8808SOL    HW137103   2.095   6.260   2.692
 8808SOL    HW237104   2.205   6.380   2.672
 8809SOL     OW37105   3.193   9.241   3.483
 8809SOL    HW137106   3.141   9.235   3.398
 8809SOL    HW237107   3.147   9.188   3.555
 8810SOL     OW37108   8.955   5.623   1.112
 8810SOL    HW137109   8.908   5.572   1.040
 8810SOL    HW237110   8.969   5.718   1.083
 8811SOL     OW37111   9.327   1.561   2.180
 8811SOL    HW137112   9.323   1.531   2.275
 8811SOL    HW237113   9.264   1.505   2.125
 8812SOL     OW37114   3.946   1.407   0.307
 8812SOL    HW137115   3.964   1.474   0.379
 8812SOL    HW237116   4.033   1.380   0.265
 8813SOL     OW37117   2.745   6.065   3.482
 8813SOL    HW137118   2.741   6.165   3.481
 8813SOL    HW237119   2.840   6.035   3.483
 8814SOL     OW37120   9.729   6.854   1.516
 8814SOL    HW137121   9.806   6.879   1.458
 8814SOL    HW237122   9.648   6.904   1.486
 8815SOL     OW37123   2.854   3.901   1.616
 8815SOL    HW137124   2.868   3.984   1.670
 8815SOL    HW237125   2.770   3.910   1.562
 8816SOL     OW37126   7.075   8.603   2.428
 8816SOL    HW137127   7.089   8.509   2.462
 8816SOL    HW237128   7.049   8.600   2.332
 8817SOL     OW37129   2.489   4.112   1.632
 8817SOL    HW137130   2.550   4.049   1.583
 8817SOL    HW237131   2.415   4.141   1.572
 8818SOL     OW37132   2.692   6.077   1.789
 8818SOL    HW137133   2.633   5.997   1.798
 8818SOL    HW237134   2.646   6.157   1.826
 8819SOL     OW37135   2.824   4.264   2.468
 8819SOL    HW137136   2.744   4.205   2.483
 8819SOL    HW237137   2.878   4.267   2.552
 8820SOL     OW37138   1.825   4.262   1.145
 8820SOL    HW137139   1.902   4.204   1.119
 8820SOL    HW237140   1.742   4.230   1.099
 8821SOL     OW37141   1.358   9.684   1.948
 8821SOL    HW137142   1.353   9.618   1.873
 8821SOL    HW237143   1.330   9.639   2.033
 8822SOL     OW37144   3.724   2.174   3.749
 8822SOL    HW137145   3.650   2.133   3.697
 8822SOL    HW237146   3.795   2.105   3.767
 8823SOL     OW37147   7.847   3.109   1.272
 8823SOL    HW137148   7.929   3.156   1.304
 8823SOL    HW237149   7.858   3.010   1.285
 8824SOL     OW37150   9.809   8.080   3.160
 8824SOL    HW137151   9.874   8.045   3.228
 8824SOL    HW237152   9.845   8.164   3.120
 8825SOL     OW37153   8.479   2.593   3.694
 8825SOL    HW137154   8.569   2.582   3.653
 8825SOL    HW237155   8.488   2.597   3.794
 8826SOL     OW37156   8.120   2.927   0.808
 8826SOL    HW137157   8.086   2.921   0.901
 8826SOL    HW237158   8.045   2.912   0.744
 8827SOL     OW37159   1.542   4.964   2.875
 8827SOL    HW137160   1.571   4.948   2.781
 8827SOL    HW237161   1.621   4.990   2.931
 8828SOL     OW37162   3.784   4.193   2.819
 8828SOL    HW137163   3.851   4.192   2.746
 8828SOL    HW237164   3.698   4.233   2.786
 8829SOL     OW37165   1.978   5.194   0.169
 8829SOL    HW137166   1.992   5.171   0.266
 8829SOL    HW237167   2.028   5.278   0.147
 8830SOL     OW37168   1.356   4.165   1.515
 8830SOL    HW137169   1.337   4.106   1.437
 8830SOL    HW237170   1.367   4.259   1.484
 8831SOL     OW37171   4.894   9.528   1.664
 8831SOL    HW137172   4.858   9.559   1.752
 8831SOL    HW237173   4.860   9.435   1.645
 8832SOL     OW37174   8.708   3.043   2.672
 8832SOL    HW137175   8.659   3.069   2.755
 8832SOL    HW237176   8.642   3.007   2.606
 8833SOL     OW37177   2.920   2.023   3.391
 8833SOL    HW137178   2.824   2.001   3.410
 8833SOL    HW237179   2.926   2.075   3.306
 8834SOL     OW37180   8.282   3.286   0.627
 8834SOL    HW137181   8.182   3.293   0.635
 8834SOL    HW237182   8.305   3.245   0.538
 8835SOL     OW37183   4.425   4.594   1.464
 8835SOL    HW137184   4.486   4.673   1.461
 8835SOL    HW237185   4.331   4.624   1.449
 8836SOL     OW37186   0.036   9.689   2.894
 8836SOL    HW137187   9.984   9.685   2.979
 8836SOL    HW237188   0.013   9.609   2.838
 8837SOL     OW37189   1.454   9.747   2.305
 8837SOL    HW137190   1.382   9.687   2.270
 8837SOL    HW237191   1.419   9.840   2.315
 8838SOL     OW37192   3.708   7.039   4.086
 8838SOL    HW137193   3.783   7.005   4.142
 8838SOL    HW237194   3.634   7.071   4.144
 8839SOL     OW37195   0.220   0.412   0.536
 8839SOL    HW137196   0.292   0.383   0.472
 8839SOL    HW237197   0.255   0.411   0.629
 8840SOL     OW37198   8.966   7.329   0.459
 8840SOL    HW137199   9.036   7.333   0.531
 8840SOL    HW237200   8.937   7.422   0.435
 8841SOL     OW37201   2.395   8.917   3.973
 8841SOL    HW137202   2.362   8.885   4.062
 8841SOL    HW237203   2.495   8.915   3.971
 8842SOL     OW37204   8.100   6.543   3.816
 8842SOL    HW137205   8.018   6.574   3.767
 8842SOL    HW237206   8.075   6.471   3.881
 8843SOL     OW37207   1.316   8.511   0.161
 8843SOL    HW137208   1.370   8.431   0.189
 8843SOL    HW237209   1.377   8.586   0.138
 8844SOL     OW37210   2.236   9.885   2.679
 8844SOL    HW137211   2.226   9.972   2.630
 8844SOL    HW237212   2.204   9.896   2.773
 8845SOL     OW37213   3.562   7.176   2.650
 8845SOL    HW137214   3.629   7.246   2.673
 8845SOL    HW237215   3.569   7.154   2.553
 8846SOL     OW37216   4.900   9.467   2.385
 8846SOL    HW137217   4.997   9.472   2.408
 8846SOL    HW237218   4.871   9.371   2.382
 8847SOL     OW37219   3.528   6.211   3.161
 8847SOL    HW137220   3.539   6.308   3.185
 8847SOL    HW237221   3.544   6.199   3.063
 8848SOL     OW37222   8.921   4.129   0.855
 8848SOL    HW137223   8.896   4.195   0.925
 8848SOL    HW237224   8.971   4.053   0.897
 8849SOL     OW37225   0.731   4.070   0.389
 8849SOL    HW137226   0.795   3.994   0.378
 8849SOL    HW237227   0.657   4.061   0.322
 8850SOL     OW37228   2.896   2.233   0.129
 8850SOL    HW137229   2.815   2.287   0.109
 8850SOL    HW237230   2.974   2.294   0.146
 8851SOL     OW37231   5.806   0.385   1.692
 8851SOL    HW137232   5.760   0.328   1.623
 8851SOL    HW237233   5.746   0.397   1.771
 8852SOL     OW37234   3.719   7.151   2.946
 8852SOL    HW137235   3.725   7.248   2.921
 8852SOL    HW237236   3.771   7.097   2.880
 8853SOL     OW37237   1.369   3.035   3.067
 8853SOL    HW137238   1.329   3.120   3.033
 8853SOL    HW237239   1.305   2.959   3.052
 8854SOL     OW37240   7.871   4.016   1.318
 8854SOL    HW137241   7.777   3.984   1.311
 8854SOL    HW237242   7.912   3.981   1.402
 8855SOL     OW37243   9.670   0.004   3.855
 8855SOL    HW137244   9.646   0.088   3.806
 8855SOL    HW237245   9.748   0.022   3.915
 8856SOL     OW37246   8.525   2.181   3.465
 8856SOL    HW137247   8.467   2.123   3.409
 8856SOL    HW237248   8.482   2.272   3.475
 8857SOL     OW37249   2.717   6.649   0.514
 8857SOL    HW137250   2.654   6.629   0.439
 8857SOL    HW237251   2.681   6.724   0.568
 8858SOL     OW37252   7.319   7.822   2.211
 8858SOL    HW137253   7.335   7.772   2.126
 8858SOL    HW237254   7.327   7.920   2.194
 8859SOL     OW37255   2.593   5.155   1.360
 8859SOL    HW137256   2.532   5.092   1.409
 8859SOL    HW237257   2.688   5.135   1.383
 8860SOL     OW37258   4.290   8.992   2.794
 8860SOL    HW137259   4.270   8.971   2.698
 8860SOL    HW237260   4.277   9.090   2.811
 8861SOL     OW37261   0.553   3.465   2.211
 8861SOL    HW137262   0.628   3.474   2.145
 8861SOL    HW237263   0.557   3.374   2.253
 8862SOL     OW37264   5.557   7.114   2.737
 8862SOL    HW137265   5.568   7.024   2.778
 8862SOL    HW237266   5.465   7.123   2.700
 8863SOL     OW37267   3.135   1.227   1.492
 8863SOL    HW137268   3.098   1.310   1.451
 8863SOL    HW237269   3.143   1.239   1.591
 8864SOL     OW37270   0.247   2.348   1.966
 8864SOL    HW137271   0.326   2.394   1.924
 8864SOL    HW237272   0.165   2.366   1.912
 8865SOL     OW37273   2.326   5.896   4.077
 8865SOL    HW137274   2.309   5.932   3.985
 8865SOL    HW237275   2.407   5.940   4.116
 8866SOL     OW37276   1.564   2.090   1.294
 8866SOL    HW137277   1.640   2.154   1.307
 8866SOL    HW237278   1.519   2.073   1.381
 8867SOL     OW37279   3.475   0.912   3.666
 8867SOL    HW137280   3.485   0.864   3.578
 8867SOL    HW237281   3.487   0.847   3.741
 8868SOL     OW37282   9.079   8.563   1.398
 8868SOL    HW137283   9.002   8.520   1.353
 8868SOL    HW237284   9.063   8.567   1.497
 8869SOL     OW37285   2.589   1.273   0.460
 8869SOL    HW137286   2.556   1.351   0.407
 8869SOL    HW237287   2.684   1.255   0.438
 8870SOL     OW37288   2.967   9.004   1.224
 8870SOL    HW137289   3.060   9.040   1.220
 8870SOL    HW237290   2.917   9.049   1.298
 8871SOL     OW37291   1.102   1.209   2.588
 8871SOL    HW137292   1.136   1.115   2.586
 8871SOL    HW237293   1.148   1.263   2.518
 8872SOL     OW37294   8.063   1.961   3.886
 8872SOL    HW137295   8.041   2.045   3.933
 8872SOL    HW237296   7.995   1.943   3.815
 8873SOL     OW37297   3.977   0.232   0.576
 8873SOL    HW137298   3.922   0.305   0.616
 8873SOL    HW237299   4.010   0.171   0.648
 8874SOL     OW37300   6.327   0.502   1.420
 8874SOL    HW137301   6.302   0.450   1.339
 8874SOL    HW237302   6.261   0.482   1.493
 8875SOL     OW37303   7.611   6.975   3.499
 8875SOL    HW137304   7.655   7.030   3.570
 8875SOL    HW237305   7.630   7.016   3.409
 8876SOL     OW37306   6.913   8.532   4.320
 8876SOL    HW137307   6.856   8.454   4.296
 8876SOL    HW237308   6.856   8.609   4.345
 8877SOL     OW37309   0.915   4.032   2.466
 8877SOL    HW137310   0.935   3.973   2.544
 8877SOL    HW237311   0.830   4.002   2.422
 8878SOL     OW37312   0.249   4.115   0.401
 8878SOL    HW137313   0.269   4.151   0.310
 8878SOL    HW237314   0.283   4.180   0.470
 8879SOL     OW37315   9.623   4.946   0.229
 8879SOL    HW137316   9.585   5.028   0.185
 8879SOL    HW237317   9.576   4.930   0.316
 8880SOL     OW37318   1.183   1.023   3.755
 8880SOL    HW137319   1.203   0.966   3.676
 8880SOL    HW237320   1.112   1.089   3.731
 8881SOL     OW37321   9.774   6.916   3.484
 8881SOL    HW137322   9.778   6.832   3.538
 8881SOL    HW237323   9.702   6.975   3.520
 8882SOL     OW37324   9.004   1.041   4.064
 8882SOL    HW137325   9.005   0.979   3.985
 8882SOL    HW237326   8.928   1.105   4.055
 8883SOL     OW37327   7.757   0.581   2.121
 8883SOL    HW137328   7.770   0.504   2.060
 8883SOL    HW237329   7.777   0.666   2.072
 8884SOL     OW37330   0.558   7.449   1.824
 8884SOL    HW137331   0.624   7.488   1.760
 8884SOL    HW237332   0.465   7.473   1.796
 8885SOL     OW37333   1.032   6.953   2.400
 8885SOL    HW137334   1.102   6.917   2.462
 8885SOL    HW237335   0.944   6.909   2.420
 8886SOL     OW37336   2.868   6.517   4.070
 8886SOL    HW137337   2.953   6.466   4.055
 8886SOL    HW237338   2.795   6.476   4.015
 8887SOL     OW37339   6.915   0.507   0.398
 8887SOL    HW137340   6.978   0.549   0.333
 8887SOL    HW237341   6.904   0.410   0.377
 8888SOL     OW37342   2.270   8.657   0.200
 8888SOL    HW137343   2.297   8.747   0.166
 8888SOL    HW237344   2.233   8.666   0.293
 8889SOL     OW37345   8.765   4.905   2.634
 8889SOL    HW137346   8.718   4.969   2.694
 8889SOL    HW237347   8.843   4.951   2.590
 8890SOL     OW37348   9.511   1.657   4.005
 8890SOL    HW137349   9.424   1.619   3.972
 8890SOL    HW237350   9.516   1.647   4.105
 8891SOL     OW37351   8.578   1.618   0.375
 8891SOL    HW137352   8.478   1.613   0.375
 8891SOL    HW237353   8.614   1.571   0.295
 8892SOL     OW37354   2.033   6.496   4.280
 8892SOL    HW137355   2.037   6.397   4.274
 8892SOL    HW237356   1.943   6.524   4.313
 8893SOL     OW37357   5.674   7.262   3.759
 8893SOL    HW137358   5.619   7.222   3.686
 8893SOL    HW237359   5.618   7.276   3.840
 8894SOL     OW37360   2.239   2.390   2.674
 8894SOL    HW137361   2.334   2.420   2.673
 8894SOL    HW237362   2.202   2.398   2.766
 8895SOL     OW37363   2.837   6.020   1.567
 8895SOL    HW137364   2.775   6.022   1.489
 8895SOL    HW237365   2.787   6.044   1.650
 8896SOL     OW37366   9.826   9.681   1.680
 8896SOL    HW137367   9.735   9.657   1.646
 8896SOL    HW237368   9.894   9.669   1.607
 8897SOL     OW37369   8.839   7.733   2.403
 8897SOL    HW137370   8.819   7.653   2.347
 8897SOL    HW237371   8.757   7.760   2.453
 8898SOL     OW37372   0.039   1.019   2.177
 8898SOL    HW137373   9.951   0.981   2.150
 8898SOL    HW237374   0.026   1.085   2.251
 8899SOL     OW37375   3.334   4.944   1.762
 8899SOL    HW137376   3.310   5.012   1.694
 8899SOL    HW237377   3.370   4.989   1.844
 8900SOL     OW37378   0.438   8.918   1.225
 8900SOL    HW137379   0.524   8.876   1.193
 8900SOL    HW237380   0.430   9.010   1.186
 8901SOL     OW37381   3.434   6.517   1.314
 8901SOL    HW137382   3.484   6.457   1.251
 8901SOL    HW237383   3.446   6.612   1.287
 8902SOL     OW37384   3.781   4.463   1.160
 8902SOL    HW137385   3.737   4.443   1.072
 8902SOL    HW237386   3.874   4.427   1.160
 8903SOL     OW37387   2.375   0.309   0.553
 8903SOL    HW137388   2.364   0.408   0.554
 8903SOL    HW237389   2.320   0.270   0.479
 8904SOL     OW37390   1.945   9.168   1.944
 8904SOL    HW137391   2.003   9.087   1.940
 8904SOL    HW237392   1.967   9.221   2.026
 8905SOL     OW37393   0.873   4.302   0.367
 8905SOL    HW137394   0.816   4.221   0.382
 8905SOL    HW237395   0.854   4.370   0.438
 8906SOL     OW37396   4.506   9.602   2.263
 8906SOL    HW137397   4.600   9.596   2.231
 8906SOL    HW237398   4.481   9.698   2.277
 8907SOL     OW37399   7.128   9.975   1.445
 8907SOL    HW137400   7.189   9.897   1.429
 8907SOL    HW237401   7.147   0.014   1.535
 8908SOL     OW37402   3.860   8.703   1.881
 8908SOL    HW137403   3.904   8.637   1.820
 8908SOL    HW237404   3.763   8.709   1.858
 8909SOL     OW37405   1.920   8.215   3.703
 8909SOL    HW137406   1.846   8.147   3.705
 8909SOL    HW237407   1.881   8.307   3.712
 8910SOL     OW37408   2.730   4.247   3.213
 8910SOL    HW137409   2.816   4.274   3.256
 8910SOL    HW237410   2.737   4.152   3.183
 8911SOL     OW37411   2.325   2.556   1.138
 8911SOL    HW137412   2.405   2.507   1.103
 8911SOL    HW237413   2.243   2.499   1.126
 8912SOL     OW37414   0.956   2.128   2.336
 8912SOL    HW137415   0.931   2.066   2.410
 8912SOL    HW237416   0.924   2.091   2.249
 8913SOL     OW37417   3.783   6.358   2.878
 8913SOL    HW137418   3.777   6.458   2.871
 8913SOL    HW237419   3.691   6.320   2.893
 8914SOL     OW37420   2.428   7.438   1.014
 8914SOL    HW137421   2.472   7.453   1.102
 8914SOL    HW237422   2.338   7.397   1.028
 8915SOL     OW37423   2.650   4.859   1.759
 8915SOL    HW137424   2.561   4.823   1.730
 8915SOL    HW237425   2.652   4.867   1.859
 8916SOL     OW37426   6.352   8.438   2.931
 8916SOL    HW137427   6.412   8.481   2.997
 8916SOL    HW237428   6.397   8.436   2.841
 8917SOL     OW37429   9.830   8.732   1.734
 8917SOL    HW137430   9.808   8.727   1.832
 8917SOL    HW237431   9.917   8.684   1.717
 8918SOL     OW37432   0.311   6.111   3.358
 8918SOL    HW137433   0.323   6.047   3.434
 8918SOL    HW237434   0.302   6.204   3.394
 8919SOL     OW37435   3.388   6.746   0.923
 8919SOL    HW137436   3.293   6.726   0.948
 8919SOL    HW237437   3.411   6.698   0.838
 8920SOL     OW37438   6.862   1.853   3.128
 8920SOL    HW137439   6.924   1.808   3.064
 8920SOL    HW237440   6.859   1.951   3.110
 8921SOL     OW37441   3.912   9.511   2.332
 8921SOL    HW137442   3.863   9.446   2.273
 8921SOL    HW237443   3.932   9.468   2.420
 8922SOL     OW37444   1.118   4.551   3.908
 8922SOL    HW137445   1.141   4.526   4.002
 8922SOL    HW237446   1.156   4.641   3.887
 8923SOL     OW37447   1.938   8.188   3.116
 8923SOL    HW137448   1.987   8.266   3.158
 8923SOL    HW237449   1.973   8.103   3.155
 8924SOL     OW37450   6.101   9.815   1.573
 8924SOL    HW137451   6.006   9.802   1.545
 8924SOL    HW237452   6.118   9.763   1.657
 8925SOL     OW37453   0.491   0.803   2.806
 8925SOL    HW137454   0.488   0.783   2.904
 8925SOL    HW237455   0.578   0.770   2.768
 8926SOL     OW37456   1.403   1.594   3.399
 8926SOL    HW137457   1.424   1.498   3.378
 8926SOL    HW237458   1.323   1.623   3.345
 8927SOL     OW37459   7.000   1.045   0.317
 8927SOL    HW137460   6.909   1.014   0.345
 8927SOL    HW237461   7.015   1.023   0.221
 8928SOL     OW37462   1.701   8.469   2.859
 8928SOL    HW137463   1.658   8.412   2.789
 8928SOL    HW237464   1.800   8.472   2.843
 8929SOL     OW37465   7.900   9.461   4.027
 8929SOL    HW137466   7.883   9.363   4.018
 8929SOL    HW237467   7.963   9.490   3.954
 8930SOL     OW37468   1.337   5.003   0.555
 8930SOL    HW137469   1.305   4.927   0.612
 8930SOL    HW237470   1.425   5.036   0.588
 8931SOL     OW37471   4.159   0.559   2.692
 8931SOL    HW137472   4.156   0.513   2.781
 8931SOL    HW237473   4.067   0.589   2.667
 8932SOL     OW37474   8.032   2.244   0.365
 8932SOL    HW137475   8.061   2.166   0.419
 8932SOL    HW237476   8.112   2.294   0.332
 8933SOL     OW37477   1.859   2.761   3.434
 8933SOL    HW137478   1.905   2.846   3.459
 8933SOL    HW237479   1.766   2.782   3.402
 8934SOL     OW37480   2.093   0.199   3.003
 8934SOL    HW137481   2.098   0.279   3.063
 8934SOL    HW237482   2.186   0.165   2.986
 8935SOL     OW37483   3.576   9.094   3.657
 8935SOL    HW137484   3.503   9.076   3.591
 8935SOL    HW237485   3.664   9.064   3.618
 8936SOL     OW37486   9.797   4.305   2.916
 8936SOL    HW137487   9.891   4.273   2.917
 8936SOL    HW237488   9.793   4.397   2.876
 8937SOL     OW37489   9.453   3.085   0.256
 8937SOL    HW137490   9.537   3.131   0.227
 8937SOL    HW237491   9.401   3.146   0.316
 8938SOL     OW37492   8.384   8.055   1.893
 8938SOL    HW137493   8.452   8.089   1.827
 8938SOL    HW237494   8.342   8.131   1.941
 8939SOL     OW37495   8.287   0.806   0.911
 8939SOL    HW137496   8.341   0.826   0.829
 8939SOL    HW237497   8.234   0.886   0.937
 8940SOL     OW37498   3.268   5.945   2.608
 8940SOL    HW137499   3.253   6.038   2.576
 8940SOL    HW237500   3.343   5.904   2.556
 8941SOL     OW37501   7.690   1.245   3.327
 8941SOL    HW137502   7.676   1.273   3.232
 8941SOL    HW237503   7.702   1.326   3.385
 8942SOL     OW37504   0.563   4.292   4.364
 8942SOL    HW137505   0.614   4.207   4.352
 8942SOL    HW237506   0.467   4.277   4.342
 8943SOL     OW37507   4.506   1.549   1.988
 8943SOL    HW137508   4.514   1.534   1.890
 8943SOL    HW237509   4.464   1.468   2.030
 8944SOL     OW37510   5.803   7.504   2.254
 8944SOL    HW137511   5.833   7.552   2.171
 8944SOL    HW237512   5.871   7.517   2.326
 8945SOL     OW37513   7.140   8.300   4.066
 8945SOL    HW137514   7.072   8.329   3.999
 8945SOL    HW237515   7.123   8.204   4.091
 8946SOL     OW37516   9.890   8.317   2.996
 8946SOL    HW137517   9.902   8.403   2.947
 8946SOL    HW237518   9.949   8.247   2.956
 8947SOL     OW37519   5.871   8.412   2.525
 8947SOL    HW137520   5.910   8.497   2.560
 8947SOL    HW237521   5.795   8.432   2.463
 8948SOL     OW37522   2.107   6.187   4.001
 8948SOL    HW137523   2.183   6.251   3.996
 8948SOL    HW237524   2.021   6.236   3.990
 8949SOL     OW37525   9.606   8.907   1.128
 8949SOL    HW137526   9.667   8.984   1.113
 8949SOL    HW237527   9.569   8.911   1.221
 8950SOL     OW37528   7.831   1.955   3.726
 8950SOL    HW137529   7.862   2.017   3.653
 8950SOL    HW237530   7.777   2.007   3.793
 8951SOL     OW37531   4.566   0.331   3.570
 8951SOL    HW137532   4.644   0.342   3.632
 8951SOL    HW237533   4.565   0.238   3.534
 8952SOL     OW37534   3.482   4.568   1.007
 8952SOL    HW137535   3.505   4.664   0.993
 8952SOL    HW237536   3.554   4.510   0.967
 8953SOL     OW37537   9.183   0.198   0.533
 8953SOL    HW137538   9.118   0.123   0.544
 8953SOL    HW237539   9.151   0.278   0.584
 8954SOL     OW37540   9.288   6.635   1.881
 8954SOL    HW137541   9.262   6.668   1.972
 8954SOL    HW237542   9.367   6.574   1.888
 8955SOL     OW37543   8.225   9.857   1.543
 8955SOL    HW137544   8.290   9.840   1.617
 8955SOL    HW237545   8.132   9.845   1.576
 8956SOL     OW37546   9.418   4.548   3.721
 8956SOL    HW137547   9.323   4.571   3.699
 8956SOL    HW237548   9.442   4.586   3.811
 8957SOL     OW37549   0.390   4.826   2.741
 8957SOL    HW137550   0.348   4.742   2.775
 8957SOL    HW237551   0.318   4.889   2.709
 8958SOL     OW37552   5.333   9.124   1.863
 8958SOL    HW137553   5.357   9.163   1.773
 8958SOL    HW237554   5.378   9.036   1.874
 8959SOL     OW37555   9.057   4.857   1.619
 8959SOL    HW137556   9.145   4.810   1.611
 8959SOL    HW237557   9.055   4.908   1.705
 8960SOL     OW37558   2.985   9.046   2.619
 8960SOL    HW137559   2.990   8.997   2.706
 8960SOL    HW237560   3.044   9.001   2.552
 8961SOL     OW37561   8.263   2.156   3.000
 8961SOL    HW137562   8.362   2.166   3.006
 8961SOL    HW237563   8.220   2.203   3.077
 8962SOL     OW37564   5.860   0.411   3.661
 8962SOL    HW137565   5.821   0.463   3.737
 8962SOL    HW237566   5.944   0.455   3.630
 8963SOL     OW37567   0.922   6.459   1.602
 8963SOL    HW137568   0.947   6.366   1.630
 8963SOL    HW237569   0.835   6.457   1.552
 8964SOL     OW37570   2.823   4.271   0.174
 8964SOL    HW137571   2.816   4.305   0.268
 8964SOL    HW237572   2.745   4.304   0.121
 8965SOL     OW37573   0.179   0.493   4.329
 8965SOL    HW137574   0.277   0.514   4.334
 8965SOL    HW237575   0.142   0.484   4.421
 8966SOL     OW37576   8.019   9.930   4.153
 8966SOL    HW137577   8.109   9.885   4.153
 8966SOL    HW237578   8.030   0.023   4.118
 8967SOL     OW37579   9.015   8.934   3.246
 8967SOL    HW137580   8.961   8.981   3.316
 8967SOL    HW237581   8.975   8.844   3.229
 8968SOL     OW37582   3.490   8.988   2.168
 8968SOL    HW137583   3.585   8.962   2.153
 8968SOL    HW237584   3.449   8.927   2.237
 8969SOL     OW37585   1.706   4.126   2.484
 8969SOL    HW137586   1.800   4.152   2.462
 8969SOL    HW237587   1.686   4.036   2.447
 8970SOL     OW37588   4.481   1.904   0.312
 8970SOL    HW137589   4.407   1.889   0.378
 8970SOL    HW237590   4.569   1.892   0.357
 8971SOL     OW37591   3.035   7.201   0.154
 8971SOL    HW137592   2.977   7.277   0.181
 8971SOL    HW237593   2.978   7.121   0.132
 8972SOL     OW37594   3.805   3.790   2.832
 8972SOL    HW137595   3.898   3.777   2.868
 8972SOL    HW237596   3.764   3.700   2.815
 8973SOL     OW37597   8.986   6.284   2.203
 8973SOL    HW137598   8.945   6.242   2.122
 8973SOL    HW237599   8.913   6.311   2.266
 8974SOL     OW37600   4.584   3.492   2.015
 8974SOL    HW137601   4.605   3.424   2.086
 8974SOL    HW237602   4.667   3.513   1.964
 8975SOL     OW37603   1.325   7.889   3.058
 8975SOL    HW137604   1.363   7.976   3.026
 8975SOL    HW237605   1.301   7.833   2.979
 8976SOL     OW37606   1.751   8.350   1.382
 8976SOL    HW137607   1.806   8.292   1.322
 8976SOL    HW237608   1.789   8.345   1.475
 8977SOL     OW37609   3.144   7.510   2.346
 8977SOL    HW137610   3.170   7.533   2.252
 8977SOL    HW237611   3.044   7.516   2.355
 8978SOL     OW37612   2.445   9.291   3.701
 8978SOL    HW137613   2.453   9.305   3.602
 8978SOL    HW237614   2.431   9.193   3.719
 8979SOL     OW37615   0.134   6.267   2.227
 8979SOL    HW137616   0.136   6.314   2.315
 8979SOL    HW237617   0.093   6.177   2.238
 8980SOL     OW37618   8.777   9.733   1.182
 8980SOL    HW137619   8.706   9.780   1.235
 8980SOL    HW237620   8.737   9.693   1.100
 8981SOL     OW37621   9.123   5.692   3.154
 8981SOL    HW137622   9.100   5.712   3.059
 8981SOL    HW237623   9.201   5.748   3.182
 8982SOL     OW37624   9.206   9.323   0.081
 8982SOL    HW137625   9.146   9.403   0.087
 8982SOL    HW237626   9.298   9.352   0.054
 8983SOL     OW37627   8.767   8.924   3.659
 8983SOL    HW137628   8.815   8.837   3.669
 8983SOL    HW237629   8.779   8.979   3.741
 8984SOL     OW37630   2.468   3.685   0.328
 8984SOL    HW137631   2.452   3.778   0.295
 8984SOL    HW237632   2.559   3.655   0.299
 8985SOL     OW37633   2.684   8.501   3.006
 8985SOL    HW137634   2.730   8.548   2.931
 8985SOL    HW237635   2.670   8.405   2.981
 8986SOL     OW37636   9.921   5.234   3.711
 8986SOL    HW137637   9.836   5.277   3.742
 8986SOL    HW237638   9.948   5.273   3.624
 8987SOL     OW37639   8.837   9.245   3.044
 8987SOL    HW137640   8.774   9.201   3.108
 8987SOL    HW237641   8.878   9.326   3.088
 8988SOL     OW37642   6.942   8.555   1.281
 8988SOL    HW137643   7.030   8.600   1.294
 8988SOL    HW237644   6.873   8.599   1.339
 8989SOL     OW37645   3.410   1.203   3.973
 8989SOL    HW137646   3.321   1.156   3.971
 8989SOL    HW237647   3.458   1.179   4.057
 8990SOL     OW37648   0.097   3.485   0.530
 8990SOL    HW137649   0.185   3.458   0.493
 8990SOL    HW237650   0.100   3.582   0.556
 8991SOL     OW37651   9.829   3.659   0.671
 8991SOL    HW137652   9.922   3.686   0.646
 8991SOL    HW237653   9.821   3.559   0.665
 8992SOL     OW37654   2.303   0.138   1.175
 8992SOL    HW137655   2.395   0.114   1.146
 8992SOL    HW237656   2.237   0.099   1.110
 8993SOL     OW37657   9.074   8.712   4.263
 8993SOL    HW137658   8.976   8.703   4.249
 8993SOL    HW237659   9.093   8.799   4.310
 8994SOL     OW37660   2.216   9.027   3.525
 8994SOL    HW137661   2.154   9.104   3.538
 8994SOL    HW237662   2.255   9.031   3.433
 8995SOL     OW37663   6.575   9.989   3.826
 8995SOL    HW137664   6.515   0.064   3.853
 8995SOL    HW237665   6.560   9.910   3.885
 8996SOL     OW37666   5.158   0.439   0.074
 8996SOL    HW137667   5.145   0.381   0.154
 8996SOL    HW237668   5.255   0.440   0.049
 8997SOL     OW37669   5.141   6.928   3.577
 8997SOL    HW137670   5.233   6.899   3.552
 8997SOL    HW237671   5.144   7.019   3.617
 8998SOL     OW37672   3.696   8.772   2.683
 8998SOL    HW137673   3.724   8.684   2.722
 8998SOL    HW237674   3.768   8.807   2.623
 8999SOL     OW37675   9.852   1.534   0.845
 8999SOL    HW137676   9.778   1.549   0.910
 8999SOL    HW237677   9.936   1.573   0.881
 9000SOL     OW37678   7.198   7.532   3.158
 9000SOL    HW137679   7.111   7.500   3.195
 9000SOL    HW237680   7.216   7.625   3.192
 9001SOL     OW37681   8.941   3.451   2.010
 9001SOL    HW137682   8.867   3.517   1.999
 9001SOL    HW237683   8.906   3.367   2.051
 9002SOL     OW37684   4.858   0.255   2.600
 9002SOL    HW137685   4.795   0.271   2.524
 9002SOL    HW237686   4.836   0.317   2.675
 9003SOL     OW37687   2.929   5.920   0.949
 9003SOL    HW137688   2.861   5.884   1.013
 9003SOL    HW237689   2.975   5.999   0.990
 9004SOL     OW37690   1.914   0.478   3.471
 9004SOL    HW137691   2.004   0.518   3.457
 9004SOL    HW237692   1.902   0.453   3.567
 9005SOL     OW37693   4.026   0.154   2.945
 9005SOL    HW137694   4.117   0.114   2.933
 9005SOL    HW237695   4.027   0.250   2.919
 9006SOL     OW37696   1.220   4.914   1.468
 9006SOL    HW137697   1.259   4.970   1.542
 9006SOL    HW237698   1.142   4.961   1.428
 9007SOL     OW37699   3.210   2.696   1.167
 9007SOL    HW137700   3.140   2.652   1.111
 9007SOL    HW237701   3.247   2.629   1.232
 9008SOL     OW37702   8.116   6.738   2.215
 9008SOL    HW137703   8.142   6.816   2.158
 9008SOL    HW237704   8.154   6.654   2.176
 9009SOL     OW37705   3.285   8.330   1.345
 9009SOL    HW137706   3.198   8.338   1.297
 9009SOL    HW237707   3.315   8.235   1.346
 9010SOL     OW37708   4.742   0.148   4.332
 9010SOL    HW137709   4.779   0.191   4.415
 9010SOL    HW237710   4.817   0.118   4.274
 9011SOL     OW37711   4.031   8.557   3.446
 9011SOL    HW137712   4.051   8.464   3.476
 9011SOL    HW237713   3.938   8.582   3.475
 9012SOL     OW37714   1.410   0.030   0.051
 9012SOL    HW137715   1.377   0.123   0.036
 9012SOL    HW237716   1.475   0.029   0.127
 9013SOL     OW37717   6.436   9.176   1.647
 9013SOL    HW137718   6.434   9.227   1.561
 9013SOL    HW237719   6.450   9.239   1.723
 9014SOL     OW37720   0.239   9.149   2.421
 9014SOL    HW137721   0.213   9.066   2.470
 9014SOL    HW237722   0.158   9.187   2.375
 9015SOL     OW37723   2.930   6.393   3.723
 9015SOL    HW137724   2.985   6.369   3.802
 9015SOL    HW237725   2.979   6.458   3.666
 9016SOL     OW37726   1.874   4.574   0.276
 9016SOL    HW137727   1.934   4.554   0.353
 9016SOL    HW237728   1.779   4.573   0.308
 9017SOL     OW37729   2.807   8.297   2.408
 9017SOL    HW137730   2.766   8.311   2.498
 9017SOL    HW237731   2.907   8.300   2.416
 9018SOL     OW37732   0.827   8.306   2.550
 9018SOL    HW137733   0.804   8.400   2.576
 9018SOL    HW237734   0.802   8.291   2.455
 9019SOL     OW37735   0.553   1.316   2.693
 9019SOL    HW137736   0.613   1.304   2.613
 9019SOL    HW237737   0.541   1.228   2.739
 9020SOL     OW37738   2.802   1.859   2.971
 9020SOL    HW137739   2.738   1.901   2.906
 9020SOL    HW237740   2.838   1.774   2.932
 9021SOL     OW37741   1.407   2.225   0.365
 9021SOL    HW137742   1.354   2.215   0.281
 9021SOL    HW237743   1.476   2.153   0.369
 9022SOL     OW37744   3.398   3.741   2.038
 9022SOL    HW137745   3.363   3.655   2.001
 9022SOL    HW237746   3.351   3.818   1.995
 9023SOL     OW37747   2.192   8.069   2.033
 9023SOL    HW137748   2.174   7.997   1.967
 9023SOL    HW237749   2.226   8.029   2.118
 9024SOL     OW37750   2.942   7.150   2.168
 9024SOL    HW137751   2.875   7.224   2.169
 9024SOL    HW237752   2.912   7.079   2.104
 9025SOL     OW37753   5.076   1.293   3.826
 9025SOL    HW137754   5.070   1.382   3.872
 9025SOL    HW237755   5.019   1.227   3.875
 9026SOL     OW37756   5.757   0.398   4.081
 9026SOL    HW137757   5.753   0.454   3.999
 9026SOL    HW237758   5.843   0.416   4.130
 9027SOL     OW37759   8.918   2.168   3.715
 9027SOL    HW137760   8.995   2.198   3.659
 9027SOL    HW237761   8.907   2.069   3.706
 9028SOL     OW37762   4.494   1.392   3.479
 9028SOL    HW137763   4.540   1.450   3.546
 9028SOL    HW237764   4.561   1.349   3.420
 9029SOL     OW37765   4.771   9.593   1.903
 9029SOL    HW137766   4.779   9.595   2.003
 9029SOL    HW237767   4.678   9.621   1.877
 9030SOL     OW37768   0.514   7.470   0.159
 9030SOL    HW137769   0.573   7.439   0.085
 9030SOL    HW237770   0.571   7.508   0.233
 9031SOL     OW37771   4.887   4.161   2.033
 9031SOL    HW137772   4.827   4.131   1.959
 9031SOL    HW237773   4.922   4.252   2.014
 9032SOL     OW37774   2.646   2.713   0.361
 9032SOL    HW137775   2.640   2.614   0.371
 9032SOL    HW237776   2.731   2.745   0.402
 9033SOL     OW37777   9.018   5.888   1.043
 9033SOL    HW137778   9.098   5.844   1.002
 9033SOL    HW237779   9.047   5.966   1.098
 9034SOL     OW37780   2.010   9.971   0.749
 9034SOL    HW137781   1.924   9.992   0.703
 9034SOL    HW237782   2.010   9.875   0.778
 9035SOL     OW37783   3.346   5.962   2.871
 9035SOL    HW137784   3.326   6.055   2.902
 9035SOL    HW237785   3.317   5.952   2.776
 9036SOL     OW37786   1.656   7.390   0.934
 9036SOL    HW137787   1.707   7.475   0.925
 9036SOL    HW237788   1.716   7.313   0.912
 9037SOL     OW37789   2.292   2.148   2.308
 9037SOL    HW137790   2.293   2.230   2.252
 9037SOL    HW237791   2.294   2.067   2.249
 9038SOL     OW37792   0.498   4.501   1.918
 9038SOL    HW137793   0.547   4.571   1.970
 9038SOL    HW237794   0.534   4.411   1.941
 9039SOL     OW37795   7.935   6.560   1.865
 9039SOL    HW137796   7.946   6.493   1.939
 9039SOL    HW237797   7.856   6.618   1.884
 9040SOL     OW37798   3.792   2.012   2.241
 9040SOL    HW137799   3.860   1.939   2.238
 9040SOL    HW237800   3.700   1.973   2.231
 9041SOL     OW37801   0.993   8.912   0.271
 9041SOL    HW137802   0.900   8.877   0.282
 9041SOL    HW237803   1.031   8.875   0.186
 9042SOL     OW37804   3.041   4.270   3.283
 9042SOL    HW137805   3.137   4.249   3.300
 9042SOL    HW237806   3.016   4.236   3.192
 9043SOL     OW37807   6.766   9.860   2.283
 9043SOL    HW137808   6.773   9.826   2.189
 9043SOL    HW237809   6.854   9.848   2.330
 9044SOL     OW37810   2.618   6.857   0.663
 9044SOL    HW137811   2.575   6.790   0.723
 9044SOL    HW237812   2.645   6.937   0.717
 9045SOL     OW37813   9.828   5.755   1.888
 9045SOL    HW137814   9.739   5.708   1.885
 9045SOL    HW237815   9.847   5.796   1.799
 9046SOL     OW37816   5.680   9.454   1.235
 9046SOL    HW137817   5.623   9.516   1.181
 9046SOL    HW237818   5.770   9.495   1.249
 9047SOL     OW37819   4.353   2.452   2.620
 9047SOL    HW137820   4.451   2.464   2.606
 9047SOL    HW237821   4.308   2.442   2.531
 9048SOL     OW37822   6.948   9.108   2.081
 9048SOL    HW137823   7.010   9.044   2.128
 9048SOL    HW237824   6.975   9.202   2.102
 9049SOL     OW37825   6.052   6.863   1.990
 9049SOL    HW137826   6.082   6.933   1.924
 9049SOL    HW237827   5.998   6.794   1.942
 9050SOL     OW37828   8.131   7.098   0.631
 9050SOL    HW137829   8.109   7.183   0.584
 9050SOL    HW237830   8.147   7.026   0.563
 9051SOL     OW37831   9.423   7.324   0.737
 9051SOL    HW137832   9.438   7.232   0.773
 9051SOL    HW237833   9.492   7.344   0.668
 9052SOL     OW37834   3.569   9.154   2.992
 9052SOL    HW137835   3.611   9.101   2.919
 9052SOL    HW237836   3.470   9.158   2.978
 9053SOL     OW37837   6.869   7.341   4.135
 9053SOL    HW137838   6.796   7.327   4.068
 9053SOL    HW237839   6.847   7.419   4.192
 9054SOL     OW37840   2.389   7.927   0.039
 9054SOL    HW137841   2.455   7.908   0.112
 9054SOL    HW237842   2.297   7.922   0.076
 9055SOL     OW37843   7.135   1.257   0.437
 9055SOL    HW137844   7.084   1.186   0.389
 9055SOL    HW237845   7.157   1.331   0.373
 9056SOL     OW37846   2.909   4.021   0.239
 9056SOL    HW137847   2.992   4.016   0.295
 9056SOL    HW237848   2.894   4.115   0.209
 9057SOL     OW37849   3.140   3.975   0.379
 9057SOL    HW137850   3.228   4.021   0.364
 9057SOL    HW237851   3.155   3.893   0.433
 9058SOL     OW37852   5.180   6.585   1.853
 9058SOL    HW137853   5.199   6.681   1.830
 9058SOL    HW237854   5.136   6.580   1.943
 9059SOL     OW37855   0.083   5.426   3.867
 9059SOL    HW137856   0.021   5.362   3.822
 9059SOL    HW237857   0.177   5.400   3.848
 9060SOL     OW37858   4.611   0.416   3.147
 9060SOL    HW137859   4.649   0.506   3.122
 9060SOL    HW237860   4.685   0.349   3.153
 9061SOL     OW37861   8.025   7.689   4.235
 9061SOL    HW137862   7.958   7.616   4.248
 9061SOL    HW237863   8.118   7.651   4.242
 9062SOL     OW37864   9.571   6.279   2.872
 9062SOL    HW137865   9.510   6.207   2.838
 9062SOL    HW237866   9.585   6.346   2.800
 9063SOL     OW37867   4.109   3.515   1.295
 9063SOL    HW137868   4.187   3.506   1.233
 9063SOL    HW237869   4.136   3.572   1.373
 9064SOL     OW37870   3.423   7.349   0.076
 9064SOL    HW137871   3.396   7.399   5.628
 9064SOL    HW237872   3.503   7.392   0.117
 9065SOL     OW37873   8.093   7.891   4.054
 9065SOL    HW137874   8.076   7.816   4.119
 9065SOL    HW237875   8.062   7.977   4.095
 9066SOL     OW37876   3.828   9.664   1.530
 9066SOL    HW137877   3.758   9.722   1.489
 9066SOL    HW237878   3.784   9.584   1.571
 9067SOL     OW37879   9.348   4.996   1.953
 9067SOL    HW137880   9.416   4.923   1.946
 9067SOL    HW237881   9.320   5.006   2.049
 9068SOL     OW37882   4.691   7.900   1.985
 9068SOL    HW137883   4.756   7.914   2.059
 9068SOL    HW237884   4.726   7.829   1.923
 9069SOL     OW37885   4.430   0.477   1.315
 9069SOL    HW137886   4.503   0.460   1.248
 9069SOL    HW237887   4.432   0.405   1.385
 9070SOL     OW37888   8.801   1.253   0.946
 9070SOL    HW137889   8.855   1.205   1.015
 9070SOL    HW237890   8.729   1.192   0.912
 9071SOL     OW37891   9.966   3.039   3.566
 9071SOL    HW137892   0.008   3.108   3.625
 9071SOL    HW237893   0.036   2.976   3.533
 9072SOL     OW37894   9.407   0.130   1.012
 9072SOL    HW137895   9.363   0.199   1.069
 9072SOL    HW237896   9.398   0.155   0.916
 9073SOL     OW37897   4.372   7.959   1.886
 9073SOL    HW137898   4.360   7.928   1.981
 9073SOL    HW237899   4.451   8.021   1.882
 9074SOL     OW37900   1.477   3.338   1.044
 9074SOL    HW137901   1.494   3.241   1.057
 9074SOL    HW237902   1.420   3.352   0.963
 9075SOL     OW37903   8.933   2.237   3.375
 9075SOL    HW137904   8.862   2.303   3.349
 9075SOL    HW237905   8.920   2.153   3.323
 9076SOL     OW37906   4.555   2.977   4.266
 9076SOL    HW137907   4.647   2.946   4.288
 9076SOL    HW237908   4.541   2.973   4.167
 9077SOL     OW37909   9.727   7.877   2.055
 9077SOL    HW137910   9.695   7.794   2.102
 9077SOL    HW237911   9.796   7.852   1.988
 9078SOL     OW37912   7.135   8.189   3.110
 9078SOL    HW137913   7.230   8.191   3.076
 9078SOL    HW237914   7.119   8.270   3.166
 9079SOL     OW37915   8.790   6.475   0.659
 9079SOL    HW137916   8.720   6.449   0.725
 9079SOL    HW237917   8.864   6.524   0.706
 9080SOL     OW37918   9.913   5.039   0.622
 9080SOL    HW137919   9.896   5.023   0.525
 9080SOL    HW237920   9.959   4.959   0.661
 9081SOL     OW37921   2.595   2.668   0.089
 9081SOL    HW137922   2.564   2.754   0.048
 9081SOL    HW237923   2.618   2.683   0.185
 9082SOL     OW37924   0.789   0.025   0.904
 9082SOL    HW137925   0.742   0.031   0.992
 9082SOL    HW237926   0.847   9.944   0.903
 9083SOL     OW37927   4.017   9.835   2.521
 9083SOL    HW137928   4.076   9.773   2.470
 9083SOL    HW237929   3.998   9.795   2.611
 9084SOL     OW37930   8.706   9.837   2.667
 9084SOL    HW137931   8.722   9.856   2.764
 9084SOL    HW237932   8.608   9.822   2.651
 9085SOL     OW37933   1.521   1.999   2.816
 9085SOL    HW137934   1.540   2.095   2.798
 9085SOL    HW237935   1.422   1.985   2.821
 9086SOL     OW37936   1.441   2.859   2.338
 9086SOL    HW137937   1.509   2.787   2.348
 9086SOL    HW237938   1.456   2.908   2.252
 9087SOL     OW37939   4.159   3.681   0.620
 9087SOL    HW137940   4.134   3.721   0.532
 9087SOL    HW237941   4.106   3.598   0.636
 9088SOL     OW37942   7.898   9.102   2.254
 9088SOL    HW137943   7.823   9.161   2.225
 9088SOL    HW237944   7.961   9.155   2.312
 9089SOL     OW37945   6.841   9.070   2.826
 9089SOL    HW137946   6.913   9.133   2.795
 9089SOL    HW237947   6.856   9.047   2.922
 9090SOL     OW37948   4.568   9.276   1.814
 9090SOL    HW137949   4.498   9.318   1.757
 9090SOL    HW237950   4.572   9.323   1.902
 9091SOL     OW37951   8.085   6.629   0.551
 9091SOL    HW137952   8.146   6.678   0.614
 9091SOL    HW237953   8.112   6.650   0.457
 9092SOL     OW37954   4.128   3.945   4.060
 9092SOL    HW137955   4.208   3.959   4.117
 9092SOL    HW237956   4.074   3.868   4.096
 9093SOL     OW37957   1.820   5.645   1.233
 9093SOL    HW137958   1.855   5.699   1.156
 9093SOL    HW237959   1.742   5.591   1.203
 9094SOL     OW37960   9.195   1.799   2.225
 9094SOL    HW137961   9.193   1.799   2.325
 9094SOL    HW237962   9.253   1.725   2.193
 9095SOL     OW37963   3.992   4.981   2.228
 9095SOL    HW137964   4.035   4.891   2.225
 9095SOL    HW237965   4.061   5.050   2.252
 9096SOL     OW37966   6.968   0.769   4.205
 9096SOL    HW137967   6.969   0.795   4.108
 9096SOL    HW237968   6.880   0.795   4.245
 9097SOL     OW37969   4.153   9.959   1.455
 9097SOL    HW137970   4.233   9.918   1.498
 9097SOL    HW237971   4.072   9.942   1.513
 9098SOL     OW37972   9.587   6.420   3.102
 9098SOL    HW137973   9.583   6.365   3.018
 9098SOL    HW237974   9.495   6.451   3.125
 9099SOL     OW37975   0.892   6.333   2.957
 9099SOL    HW137976   0.816   6.354   2.896
 9099SOL    HW237977   0.978   6.345   2.908
 9100SOL     OW37978   2.014   3.100   1.099
 9100SOL    HW137979   1.943   3.127   1.164
 9100SOL    HW237980   1.990   3.133   1.007
 9101SOL     OW37981   1.883   3.200   0.873
 9101SOL    HW137982   1.835   3.287   0.884
 9101SOL    HW237983   1.817   3.128   0.851
 9102SOL     OW37984   9.744   5.930   4.291
 9102SOL    HW137985   9.676   5.859   4.313
 9102SOL    HW237986   9.813   5.892   4.231
 9103SOL     OW37987   7.488   9.728   1.082
 9103SOL    HW137988   7.583   9.754   1.096
 9103SOL    HW237989   7.477   9.631   1.106
 9104SOL     OW37990   5.120   1.241   1.226
 9104SOL    HW137991   5.185   1.166   1.224
 9104SOL    HW237992   5.035   1.210   1.268
 9105SOL     OW37993   2.467   5.009   3.853
 9105SOL    HW137994   2.509   5.037   3.766
 9105SOL    HW237995   2.419   4.922   3.840
 9106SOL     OW37996   1.207   6.306   1.819
 9106SOL    HW137997   1.218   6.274   1.914
 9106SOL    HW237998   1.195   6.405   1.818
 9107SOL     OW37999   4.373   3.141   2.336
 9107SOL    HW138000   4.421   3.054   2.347
 9107SOL    HW238001   4.377   3.170   2.241
 9108SOL     OW38002   7.899   4.598   3.816
 9108SOL    HW138003   7.912   4.515   3.762
 9108SOL    HW238004   7.987   4.643   3.832
 9109SOL     OW38005   7.541   6.609   3.144
 9109SOL    HW138006   7.515   6.603   3.240
 9109SOL    HW238007   7.563   6.517   3.110
 9110SOL     OW38008   2.557   4.827   3.079
 9110SOL    HW138009   2.529   4.748   3.025
 9110SOL    HW238010   2.630   4.876   3.031
 9111SOL     OW38011   1.712   5.343   3.731
 9111SOL    HW138012   1.742   5.398   3.653
 9111SOL    HW238013   1.776   5.354   3.807
 9112SOL     OW38014   9.473   3.116   4.025
 9112SOL    HW138015   9.438   3.210   4.024
 9112SOL    HW238016   9.502   3.092   4.118
 9113SOL     OW38017   0.136   2.009   3.381
 9113SOL    HW138018   0.150   2.105   3.356
 9113SOL    HW238019   0.105   2.003   3.476
 9114SOL     OW38020   6.049   1.322   3.174
 9114SOL    HW138021   5.964   1.340   3.124
 9114SOL    HW238022   6.029   1.267   3.255
 9115SOL     OW38023   3.777   3.475   2.284
 9115SOL    HW138024   3.825   3.392   2.310
 9115SOL    HW238025   3.756   3.528   2.366
 9116SOL     OW38026   3.561   1.308   0.474
 9116SOL    HW138027   3.575   1.403   0.503
 9116SOL    HW238028   3.618   1.248   0.530
 9117SOL     OW38029   3.396   4.446   0.638
 9117SOL    HW138030   3.477   4.453   0.697
 9117SOL    HW238031   3.348   4.534   0.637
 9118SOL     OW38032   9.776   2.380   1.507
 9118SOL    HW138033   9.754   2.283   1.512
 9118SOL    HW238034   9.730   2.420   1.427
 9119SOL     OW38035   5.485   7.883   3.593
 9119SOL    HW138036   5.551   7.812   3.566
 9119SOL    HW238037   5.429   7.908   3.514
 9120SOL     OW38038   1.196   5.033   4.311
 9120SOL    HW138039   1.223   5.073   4.223
 9120SOL    HW238040   1.126   5.090   4.353
 9121SOL     OW38041   2.295   3.604   1.803
 9121SOL    HW138042   2.228   3.568   1.869
 9121SOL    HW238043   2.367   3.654   1.852
 9122SOL     OW38044   8.531   5.110   1.267
 9122SOL    HW138045   8.458   5.145   1.326
 9122SOL    HW238046   8.599   5.181   1.252
 9123SOL     OW38047   8.601   6.005   3.701
 9123SOL    HW138048   8.576   6.067   3.775
 9123SOL    HW238049   8.526   5.999   3.635
 9124SOL     OW38050   2.359   1.973   2.753
 9124SOL    HW138051   2.308   2.035   2.693
 9124SOL    HW238052   2.367   1.883   2.708
 9125SOL     OW38053   1.351   8.167   2.697
 9125SOL    HW138054   1.367   8.086   2.641
 9125SOL    HW238055   1.258   8.200   2.681
 9126SOL     OW38056   0.731   2.907   3.366
 9126SOL    HW138057   0.637   2.917   3.335
 9126SOL    HW238058   0.736   2.835   3.436
 9127SOL     OW38059   6.729   0.476   3.078
 9127SOL    HW138060   6.715   0.431   3.166
 9127SOL    HW238061   6.827   0.480   3.058
 9128SOL     OW38062   2.704   0.683   1.361
 9128SOL    HW138063   2.797   0.659   1.334
 9128SOL    HW238064   2.696   0.679   1.460
 9129SOL     OW38065   0.698   9.446   4.331
 9129SOL    HW138066   0.714   9.419   4.426
 9129SOL    HW238067   0.684   9.545   4.326
 9130SOL     OW38068   9.004   4.790   2.101
 9130SOL    HW138069   9.065   4.838   2.164
 9130SOL    HW238070   8.932   4.744   2.153
 9131SOL     OW38071   1.438   8.887   3.149
 9131SOL    HW138072   1.362   8.824   3.132
 9131SOL    HW238073   1.403   8.972   3.188
 9132SOL     OW38074   2.147   5.019   1.954
 9132SOL    HW138075   2.160   4.944   2.018
 9132SOL    HW238076   2.093   5.091   1.998
 9133SOL     OW38077   8.720   6.711   2.650
 9133SOL    HW138078   8.731   6.757   2.562
 9133SOL    HW238079   8.651   6.758   2.705
 9134SOL     OW38080   7.748   1.636   2.602
 9134SOL    HW138081   7.834   1.609   2.559
 9134SOL    HW238082   7.736   1.587   2.688
 9135SOL     OW38083   3.522   9.155   2.605
 9135SOL    HW138084   3.439   9.211   2.615
 9135SOL    HW238085   3.588   9.203   2.548
 9136SOL     OW38086   7.700   3.220   1.697
 9136SOL    HW138087   7.769   3.148   1.701
 9136SOL    HW238088   7.669   3.229   1.602
 9137SOL     OW38089   1.375   5.752   1.665
 9137SOL    HW138090   1.448   5.772   1.729
 9137SOL    HW238091   1.345   5.836   1.620
 9138SOL     OW38092   9.006   5.307   4.291
 9138SOL    HW138093   9.097   5.270   4.311
 9138SOL    HW238094   8.999   5.399   4.328
 9139SOL     OW38095   2.115   7.865   4.217
 9139SOL    HW138096   2.021   7.898   4.204
 9139SOL    HW238097   2.169   7.937   4.261
 9140SOL     OW38098   9.936   6.955   0.588
 9140SOL    HW138099   0.017   6.964   0.530
 9140SOL    HW238100   9.854   6.977   0.536
 9141SOL     OW38101   5.529   9.756   1.854
 9141SOL    HW138102   5.619   9.752   1.897
 9141SOL    HW238103   5.464   9.701   1.907
 9142SOL     OW38104   7.272   1.543   3.623
 9142SOL    HW138105   7.202   1.496   3.677
 9142SOL    HW238106   7.293   1.489   3.542
 9143SOL     OW38107   8.291   1.239   1.800
 9143SOL    HW138108   8.335   1.309   1.857
 9143SOL    HW238109   8.312   1.256   1.704
 9144SOL     OW38110   1.432   5.456   3.013
 9144SOL    HW138111   1.529   5.467   2.994
 9144SOL    HW238112   1.392   5.393   2.947
 9145SOL     OW38113   0.722   4.148   1.309
 9145SOL    HW138114   0.667   4.079   1.261
 9145SOL    HW238115   0.662   4.201   1.369
 9146SOL     OW38116   2.978   3.044   3.015
 9146SOL    HW138117   3.032   3.030   3.097
 9146SOL    HW238118   2.898   2.984   3.016
 9147SOL     OW38119   5.062   0.371   2.899
 9147SOL    HW138120   5.093   0.301   2.964
 9147SOL    HW238121   4.963   0.363   2.887
 9148SOL     OW38122   0.332   0.074   3.749
 9148SOL    HW138123   0.420   0.049   3.788
 9148SOL    HW238124   0.347   0.130   3.667
 9149SOL     OW38125   4.735   2.293   0.279
 9149SOL    HW138126   4.735   2.219   0.213
 9149SOL    HW238127   4.765   2.259   0.368
 9150SOL     OW38128   0.698   3.544   0.486
 9150SOL    HW138129   0.672   3.606   0.412
 9150SOL    HW238130   0.714   3.596   0.570
 9151SOL     OW38131   1.487   0.786   1.351
 9151SOL    HW138132   1.579   0.771   1.387
 9151SOL    HW238133   1.426   0.813   1.425
 9152SOL     OW38134   3.789   9.662   3.974
 9152SOL    HW138135   3.733   9.744   3.965
 9152SOL    HW238136   3.733   9.580   3.958
 9153SOL     OW38137   8.095   2.804   3.842
 9153SOL    HW138138   8.094   2.755   3.755
 9153SOL    HW238139   8.023   2.769   3.902
 9154SOL     OW38140   8.888   6.690   1.462
 9154SOL    HW138141   8.792   6.663   1.456
 9154SOL    HW238142   8.917   6.730   1.374
 9155SOL     OW38143   4.122   2.105   2.489
 9155SOL    HW138144   4.184   2.096   2.411
 9155SOL    HW238145   4.123   2.020   2.542
 9156SOL     OW38146   1.984   8.621   3.037
 9156SOL    HW138147   1.996   8.720   3.026
 9156SOL    HW238148   1.935   8.602   3.122
 9157SOL     OW38149   3.321   8.057   1.308
 9157SOL    HW138150   3.386   7.990   1.344
 9157SOL    HW238151   3.341   8.074   1.211
 9158SOL     OW38152   4.726   7.269   3.139
 9158SOL    HW138153   4.692   7.270   3.234
 9158SOL    HW238154   4.773   7.183   3.121
 9159SOL     OW38155   3.010   4.079   4.091
 9159SOL    HW138156   2.939   4.071   4.021
 9159SOL    HW238157   3.013   4.172   4.126
 9160SOL     OW38158   4.178   9.756   0.167
 9160SOL    HW138159   4.213   9.663   0.181
 9160SOL    HW238160   4.146   9.794   0.254
 9161SOL     OW38161   6.517   0.900   0.197
 9161SOL    HW138162   6.583   0.863   0.133
 9161SOL    HW238163   6.447   0.832   0.216
 9162SOL     OW38164   7.393   0.047   0.185
 9162SOL    HW138165   7.452   9.980   0.229
 9162SOL    HW238166   7.448   0.120   0.145
 9163SOL     OW38167   8.895   4.867   4.383
 9163SOL    HW138168   8.797   4.868   4.405
 9163SOL    HW238169   8.910   4.918   4.298
 9164SOL     OW38170   5.663   9.399   2.970
 9164SOL    HW138171   5.570   9.430   2.990
 9164SOL    HW238172   5.661   9.330   2.897
 9165SOL     OW38173   3.464   4.106   1.138
 9165SOL    HW138174   3.541   4.042   1.127
 9165SOL    HW238175   3.464   4.140   1.232
 9166SOL     OW38176   9.020   3.488   3.665
 9166SOL    HW138177   8.950   3.426   3.703
 9166SOL    HW238178   9.041   3.558   3.733
 9167SOL     OW38179   2.935   8.922   3.661
 9167SOL    HW138180   2.953   8.934   3.564
 9167SOL    HW238181   2.841   8.947   3.682
 9168SOL     OW38182   3.999   9.184   2.096
 9168SOL    HW138183   3.987   9.096   2.050
 9168SOL    HW238184   4.080   9.180   2.155
 9169SOL     OW38185   9.790   9.686   2.398
 9169SOL    HW138186   9.707   9.708   2.347
 9169SOL    HW238187   9.785   9.728   2.489
 9170SOL     OW38188   0.632   2.217   2.102
 9170SOL    HW138189   0.701   2.268   2.051
 9170SOL    HW238190   0.547   2.214   2.048
 9171SOL     OW38191   0.300   8.197   3.057
 9171SOL    HW138192   0.245   8.248   3.123
 9171SOL    HW238193   0.276   8.100   3.062
 9172SOL     OW38194   6.039   6.799   2.559
 9172SOL    HW138195   6.109   6.835   2.620
 9172SOL    HW238196   5.950   6.803   2.605
 9173SOL     OW38197   6.464   8.409   2.497
 9173SOL    HW138198   6.409   8.391   2.415
 9173SOL    HW238199   6.543   8.349   2.499
 9174SOL     OW38200   0.703   9.396   3.938
 9174SOL    HW138201   0.726   9.316   3.994
 9174SOL    HW238202   0.784   9.428   3.890
 9175SOL     OW38203   2.102   5.834   0.563
 9175SOL    HW138204   2.141   5.924   0.585
 9175SOL    HW238205   2.012   5.825   0.606
 9176SOL     OW38206   3.342   0.987   0.225
 9176SOL    HW138207   3.316   1.071   0.272
 9176SOL    HW238208   3.427   1.003   0.174
 9177SOL     OW38209   7.538   6.313   3.577
 9177SOL    HW138210   7.448   6.332   3.539
 9177SOL    HW238211   7.546   6.215   3.598
 9178SOL     OW38212   1.159   1.281   2.174
 9178SOL    HW138213   1.202   1.300   2.262
 9178SOL    HW238214   1.060   1.271   2.187
 9179SOL     OW38215   2.188   1.013   0.479
 9179SOL    HW138216   2.137   1.050   0.401
 9179SOL    HW238217   2.232   1.088   0.528
 9180SOL     OW38218   2.296   5.869   2.077
 9180SOL    HW138219   2.346   5.875   2.163
 9180SOL    HW238220   2.318   5.782   2.032
 9181SOL     OW38221   0.650   3.726   0.282
 9181SOL    HW138222   0.611   3.670   0.209
 9181SOL    HW238223   0.597   3.811   0.290
 9182SOL     OW38224   3.239   9.571   3.653
 9182SOL    HW138225   3.212   9.488   3.702
 9182SOL    HW238226   3.321   9.553   3.599
 9183SOL     OW38227   0.546   1.185   3.886
 9183SOL    HW138228   0.531   1.101   3.938
 9183SOL    HW238229   0.538   1.166   3.789
 9184SOL     OW38230   6.915   6.934   2.733
 9184SOL    HW138231   6.983   6.867   2.702
 9184SOL    HW238232   6.865   6.897   2.811
 9185SOL     OW38233   8.893   2.027   3.193
 9185SOL    HW138234   8.924   2.087   3.120
 9185SOL    HW238235   8.795   2.010   3.184
 9186SOL     OW38236   2.042   5.909   2.557
 9186SOL    HW138237   2.011   6.000   2.584
 9186SOL    HW238238   2.134   5.893   2.592
 9187SOL     OW38239   5.991   8.800   2.976
 9187SOL    HW138240   6.034   8.753   3.053
 9187SOL    HW238241   6.042   8.782   2.892
 9188SOL     OW38242   0.353   2.610   2.613
 9188SOL    HW138243   0.258   2.587   2.592
 9188SOL    HW238244   0.355   2.677   2.687
 9189SOL     OW38245   1.754   3.326   2.633
 9189SOL    HW138246   1.680   3.270   2.669
 9189SOL    HW238247   1.731   3.358   2.541
 9190SOL     OW38248   0.649   6.248   4.288
 9190SOL    HW138249   0.659   6.205   4.198
 9190SOL    HW238250   0.552   6.267   4.305
 9191SOL     OW38251   1.669   7.426   1.280
 9191SOL    HW138252   1.606   7.366   1.231
 9191SOL    HW238253   1.750   7.374   1.308
 9192SOL     OW38254   5.315   9.673   1.480
 9192SOL    HW138255   5.298   9.609   1.405
 9192SOL    HW238256   5.231   9.688   1.532
 9193SOL     OW38257   8.286   8.585   3.211
 9193SOL    HW138258   8.214   8.544   3.154
 9193SOL    HW238259   8.341   8.513   3.252
 9194SOL     OW38260   9.769   7.552   1.797
 9194SOL    HW138261   9.774   7.511   1.706
 9194SOL    HW238262   9.676   7.544   1.832
 9195SOL     OW38263   8.722   8.710   3.943
 9195SOL    HW138264   8.647   8.649   3.920
 9195SOL    HW238265   8.788   8.712   3.869
 9196SOL     OW38266   8.720   7.723   1.112
 9196SOL    HW138267   8.692   7.629   1.091
 9196SOL    HW238268   8.691   7.747   1.205
 9197SOL     OW38269   8.296   6.703   3.097
 9197SOL    HW138270   8.260   6.696   3.190
 9197SOL    HW238271   8.394   6.723   3.101
 9198SOL     OW38272   0.184   1.402   3.280
 9198SOL    HW138273   0.168   1.349   3.196
 9198SOL    HW238274   0.099   1.447   3.308
 9199SOL     OW38275   9.372   0.239   3.509
 9199SOL    HW138276   9.334   0.158   3.463
 9199SOL    HW238277   9.337   0.322   3.465
 9200SOL     OW38278   2.608   2.859   0.633
 9200SOL    HW138279   2.601   2.949   0.675
 9200SOL    HW238280   2.543   2.853   0.557
 9201SOL     OW38281   1.047   0.615   2.381
 9201SOL    HW138282   1.094   0.696   2.348
 9201SOL    HW238283   1.054   0.610   2.481
 9202SOL     OW38284   0.420   7.938   2.027
 9202SOL    HW138285   0.451   7.910   1.937
 9202SOL    HW238286   0.366   7.864   2.068
 9203SOL     OW38287   6.647   1.386   3.219
 9203SOL    HW138288   6.629   1.465   3.278
 9203SOL    HW238289   6.735   1.346   3.243
 9204SOL     OW38290   9.557   5.192   1.435
 9204SOL    HW138291   9.638   5.218   1.488
 9204SOL    HW238292   9.522   5.105   1.468
 9205SOL     OW38293   2.892   5.315   0.174
 9205SOL    HW138294   2.958   5.362   0.232
 9205SOL    HW238295   2.941   5.268   0.100
 9206SOL     OW38296   3.632   5.673   1.866
 9206SOL    HW138297   3.668   5.756   1.823
 9206SOL    HW238298   3.686   5.594   1.836
 9207SOL     OW38299   3.819   3.941   0.259
 9207SOL    HW138300   3.813   3.888   0.174
 9207SOL    HW238301   3.840   4.036   0.238
 9208SOL     OW38302   4.110   1.794   3.885
 9208SOL    HW138303   4.076   1.703   3.861
 9208SOL    HW238304   4.041   1.863   3.862
 9209SOL     OW38305   5.107   4.932   0.711
 9209SOL    HW138306   5.105   4.922   0.811
 9209SOL    HW238307   5.027   4.984   0.681
 9210SOL     OW38308   9.597   5.533   3.125
 9210SOL    HW138309   9.548   5.460   3.172
 9210SOL    HW238310   9.637   5.595   3.193
 9211SOL     OW38311   2.070   7.651   4.051
 9211SOL    HW138312   2.134   7.665   3.976
 9211SOL    HW238313   2.086   7.720   4.122
 9212SOL     OW38314   2.375   0.894   2.723
 9212SOL    HW138315   2.439   0.832   2.770
 9212SOL    HW238316   2.316   0.841   2.663
 9213SOL     OW38317   9.905   4.090   4.052
 9213SOL    HW138318   9.851   4.094   4.136
 9213SOL    HW238319   9.930   4.183   4.024
 9214SOL     OW38320   1.076   6.724   0.269
 9214SOL    HW138321   1.139   6.711   0.347
 9214SOL    HW238322   1.035   6.636   0.246
 9215SOL     OW38323   3.630   9.364   1.964
 9215SOL    HW138324   3.531   9.353   1.970
 9215SOL    HW238325   3.652   9.459   1.945
 9216SOL     OW38326   2.328   9.392   0.087
 9216SOL    HW138327   2.231   9.414   0.096
 9216SOL    HW238328   2.381   9.477   0.087
 9217SOL     OW38329   1.179   8.757   2.476
 9217SOL    HW138330   1.098   8.806   2.443
 9217SOL    HW238331   1.152   8.692   2.548
 9218SOL     OW38332   0.445   5.987   3.148
 9218SOL    HW138333   0.403   6.045   3.218
 9218SOL    HW238334   0.485   6.043   3.077
 9219SOL     OW38335   3.263   0.977   3.225
 9219SOL    HW138336   3.173   0.951   3.259
 9219SOL    HW238337   3.298   1.053   3.280
 9220SOL     OW38338   0.854   6.321   2.102
 9220SOL    HW138339   0.825   6.290   2.011
 9220SOL    HW238340   0.837   6.419   2.110
 9221SOL     OW38341   1.848   8.748   3.686
 9221SOL    HW138342   1.777   8.787   3.627
 9221SOL    HW238343   1.938   8.766   3.647
 9222SOL     OW38344   3.410   0.400   1.558
 9222SOL    HW138345   3.419   0.321   1.618
 9222SOL    HW238346   3.501   0.437   1.538
 9223SOL     OW38347   1.325   3.735   1.859
 9223SOL    HW138348   1.370   3.722   1.947
 9223SOL    HW238349   1.256   3.807   1.866
 9224SOL     OW38350   0.376   8.253   4.021
 9224SOL    HW138351   0.355   8.171   3.968
 9224SOL    HW238352   0.475   8.257   4.039
 9225SOL     OW38353   0.887   1.226   2.761
 9225SOL    HW138354   0.869   1.321   2.787
 9225SOL    HW238355   0.958   1.224   2.690
 9226SOL     OW38356   9.405   5.834   1.302
 9226SOL    HW138357   9.380   5.739   1.318
 9226SOL    HW238358   9.391   5.887   1.386
 9227SOL     OW38359   0.132   7.808   0.112
 9227SOL    HW138360   0.226   7.773   0.111
 9227SOL    HW238361   0.131   7.902   0.077
 9228SOL     OW38362   4.413   0.662   2.701
 9228SOL    HW138363   4.320   0.626   2.696
 9228SOL    HW238364   4.435   0.682   2.797
 9229SOL     OW38365   9.168   4.615   3.624
 9229SOL    HW138366   9.209   4.591   3.536
 9229SOL    HW238367   9.081   4.566   3.634
 9230SOL     OW38368   0.910   7.543   3.082
 9230SOL    HW138369   0.867   7.607   3.145
 9230SOL    HW238370   0.892   7.572   2.988
 9231SOL     OW38371   2.556   7.064   0.485
 9231SOL    HW138372   2.628   7.085   0.419
 9231SOL    HW238373   2.580   6.982   0.536
 9232SOL     OW38374   7.632   1.760   0.405
 9232SOL    HW138375   7.616   1.734   0.501
 9232SOL    HW238376   7.553   1.735   0.350
 9233SOL     OW38377   9.113   1.853   3.815
 9233SOL    HW138378   9.026   1.886   3.778
 9233SOL    HW238379   9.143   1.773   3.764
 9234SOL     OW38380   2.555   5.179   1.918
 9234SOL    HW138381   2.598   5.221   1.838
 9234SOL    HW238382   2.503   5.099   1.888
 9235SOL     OW38383   4.911   2.137   1.515
 9235SOL    HW138384   4.891   2.127   1.417
 9235SOL    HW238385   4.890   2.230   1.544
 9236SOL     OW38386   4.408   2.485   0.926
 9236SOL    HW138387   4.398   2.566   0.868
 9236SOL    HW238388   4.391   2.403   0.873
 9237SOL     OW38389   7.729   1.087   2.951
 9237SOL    HW138390   7.686   1.003   2.984
 9237SOL    HW238391   7.828   1.076   2.951
 9238SOL     OW38392   1.443   6.969   1.897
 9238SOL    HW138393   1.401   7.058   1.878
 9238SOL    HW238394   1.513   6.979   1.968
 9239SOL     OW38395   1.193   0.860   2.349
 9239SOL    HW138396   1.207   0.902   2.439
 9239SOL    HW238397   1.120   0.909   2.301
 9240SOL     OW38398   2.470   2.986   3.527
 9240SOL    HW138399   2.390   3.025   3.571
 9240SOL    HW238400   2.510   2.917   3.587
 9241SOL     OW38401   2.869   9.655   1.948
 9241SOL    HW138402   2.845   9.705   1.865
 9241SOL    HW238403   2.837   9.705   2.028
 9242SOL     OW38404   4.976   2.457   3.134
 9242SOL    HW138405   4.969   2.443   3.233
 9242SOL    HW238406   5.019   2.545   3.116
 9243SOL     OW38407   7.791   8.026   3.525
 9243SOL    HW138408   7.874   7.973   3.543
 9243SOL    HW238409   7.727   7.970   3.473
 9244SOL     OW38410   9.993   2.932   1.463
 9244SOL    HW138411   9.955   2.902   1.375
 9244SOL    HW238412   0.035   2.855   1.510
 9245SOL     OW38413   4.494   3.361   2.987
 9245SOL    HW138414   4.523   3.454   3.011
 9245SOL    HW238415   4.445   3.363   2.900
 9246SOL     OW38416   7.608   0.863   0.704
 9246SOL    HW138417   7.631   0.766   0.714
 9246SOL    HW238418   7.589   0.902   0.794
 9247SOL     OW38419   0.270   9.627   2.018
 9247SOL    HW138420   0.260   9.690   1.942
 9247SOL    HW238421   0.235   9.669   2.102
 9248SOL     OW38422   0.928   4.586   3.083
 9248SOL    HW138423   0.877   4.591   2.998
 9248SOL    HW238424   1.024   4.607   3.065
 9249SOL     OW38425   9.660   9.784   0.378
 9249SOL    HW138426   9.639   9.758   0.284
 9249SOL    HW238427   9.686   9.881   0.380
 9250SOL     OW38428   2.176   6.358   3.678
 9250SOL    HW138429   2.150   6.267   3.646
 9250SOL    HW238430   2.272   6.374   3.659
 9251SOL     OW38431   8.876   0.413   2.800
 9251SOL    HW138432   8.936   0.480   2.756
 9251SOL    HW238433   8.904   0.321   2.774
 9252SOL     OW38434   1.092   0.249   3.077
 9252SOL    HW138435   0.994   0.231   3.064
 9252SOL    HW238436   1.109   0.272   3.172
 9253SOL     OW38437   1.770   7.891   2.066
 9253SOL    HW138438   1.754   7.987   2.090
 9253SOL    HW238439   1.719   7.833   2.129
 9254SOL     OW38440   9.760   7.617   3.952
 9254SOL    HW138441   9.842   7.671   3.933
 9254SOL    HW238442   9.679   7.675   3.939
 9255SOL     OW38443   3.720   1.744   1.878
 9255SOL    HW138444   3.668   1.778   1.956
 9255SOL    HW238445   3.817   1.763   1.893
 9256SOL     OW38446   1.853   8.866   2.364
 9256SOL    HW138447   1.802   8.811   2.298
 9256SOL    HW238448   1.814   8.854   2.455
 9257SOL     OW38449   0.565   1.323   1.120
 9257SOL    HW138450   0.546   1.341   1.024
 9257SOL    HW238451   0.479   1.309   1.169
 9258SOL     OW38452   3.403   0.376   2.087
 9258SOL    HW138453   3.362   0.287   2.105
 9258SOL    HW238454   3.485   0.364   2.032
 9259SOL     OW38455   9.338   6.239   1.982
 9259SOL    HW138456   9.272   6.250   1.908
 9259SOL    HW238457   9.289   6.229   2.069
 9260SOL     OW38458   2.847   6.501   1.777
 9260SOL    HW138459   2.858   6.409   1.815
 9260SOL    HW238460   2.787   6.497   1.697
 9261SOL     OW38461   3.658   6.530   3.845
 9261SOL    HW138462   3.681   6.615   3.893
 9261SOL    HW238463   3.559   6.522   3.837
 9262SOL     OW38464   0.690   4.303   3.925
 9262SOL    HW138465   0.741   4.389   3.921
 9262SOL    HW238466   0.680   4.265   3.833
 9263SOL     OW38467   8.332   2.467   2.397
 9263SOL    HW138468   8.335   2.426   2.488
 9263SOL    HW238469   8.306   2.398   2.329
 9264SOL     OW38470   8.257   0.492   0.166
 9264SOL    HW138471   8.239   0.590   0.173
 9264SOL    HW238472   8.354   0.474   0.183
 9265SOL     OW38473   3.882   3.493   1.459
 9265SOL    HW138474   3.885   3.409   1.512
 9265SOL    HW238475   3.956   3.494   1.393
 9266SOL     OW38476   1.307   5.770   2.421
 9266SOL    HW138477   1.396   5.735   2.393
 9266SOL    HW238478   1.235   5.715   2.379
 9267SOL     OW38479   1.079   0.811   1.692
 9267SOL    HW138480   1.111   0.782   1.783
 9267SOL    HW238481   0.984   0.841   1.698
 9268SOL     OW38482   5.858   9.248   3.686
 9268SOL    HW138483   5.869   9.149   3.697
 9268SOL    HW238484   5.947   9.292   3.692
 9269SOL     OW38485   8.946   6.594   3.020
 9269SOL    HW138486   8.857   6.578   3.063
 9269SOL    HW238487   9.014   6.614   3.090
 9270SOL     OW38488   0.556   5.735   0.164
 9270SOL    HW138489   0.535   5.644   0.198
 9270SOL    HW238490   0.471   5.786   0.151
 9271SOL     OW38491   8.552   4.616   2.038
 9271SOL    HW138492   8.632   4.673   2.023
 9271SOL    HW238493   8.480   4.641   1.973
 9272SOL     OW38494   9.190   5.079   4.106
 9272SOL    HW138495   9.246   4.996   4.107
 9272SOL    HW238496   9.224   5.142   4.176
 9273SOL     OW38497   0.745   6.433   0.325
 9273SOL    HW138498   0.829   6.443   0.272
 9273SOL    HW238499   0.696   6.520   0.327
 9274SOL     OW38500   2.859   0.536   3.969
 9274SOL    HW138501   2.927   0.470   3.936
 9274SOL    HW238502   2.772   0.489   3.986
 9275SOL     OW38503   9.747   8.180   3.777
 9275SOL    HW138504   9.712   8.206   3.687
 9275SOL    HW238505   9.806   8.253   3.812
 9276SOL     OW38506   4.202   6.166   2.815
 9276SOL    HW138507   4.251   6.183   2.729
 9276SOL    HW238508   4.158   6.076   2.810
 9277SOL     OW38509   3.226   7.887   0.621
 9277SOL    HW138510   3.159   7.943   0.573
 9277SOL    HW238511   3.317   7.905   0.584
 9278SOL     OW38512   9.270   0.418   0.877
 9278SOL    HW138513   9.309   0.508   0.857
 9278SOL    HW238514   9.287   0.395   0.973
 9279SOL     OW38515   2.867   5.519   2.625
 9279SOL    HW138516   2.843   5.577   2.547
 9279SOL    HW238517   2.824   5.556   2.708
 9280SOL     OW38518   4.002   9.627   3.809
 9280SOL    HW138519   3.926   9.643   3.872
 9280SOL    HW238520   3.983   9.547   3.753
 9281SOL     OW38521   6.816   7.882   1.465
 9281SOL    HW138522   6.850   7.847   1.553
 9281SOL    HW238523   6.857   7.971   1.446
 9282SOL     OW38524   6.452   9.632   4.223
 9282SOL    HW138525   6.419   9.705   4.282
 9282SOL    HW238526   6.384   9.559   4.219
 9283SOL     OW38527   3.515   8.362   3.088
 9283SOL    HW138528   3.585   8.304   3.129
 9283SOL    HW238529   3.557   8.442   3.046
 9284SOL     OW38530   6.128   6.898   3.427
 9284SOL    HW138531   6.138   6.801   3.449
 9284SOL    HW238532   6.047   6.934   3.475
 9285SOL     OW38533   5.638   0.501   0.946
 9285SOL    HW138534   5.639   0.401   0.944
 9285SOL    HW238535   5.713   0.536   0.889
 9286SOL     OW38536   4.447   2.605   2.031
 9286SOL    HW138537   4.543   2.613   2.059
 9286SOL    HW238538   4.432   2.660   1.949
 9287SOL     OW38539   1.593   5.812   2.847
 9287SOL    HW138540   1.516   5.790   2.787
 9287SOL    HW238541   1.571   5.787   2.941
 9288SOL     OW38542   4.200   9.559   1.825
 9288SOL    HW138543   4.163   9.509   1.904
 9288SOL    HW238544   4.173   9.655   1.831
 9289SOL     OW38545   2.007   6.451   2.420
 9289SOL    HW138546   1.937   6.490   2.480
 9289SOL    HW238547   1.972   6.366   2.379
 9290SOL     OW38548   4.121   3.289   2.997
 9290SOL    HW138549   4.025   3.264   2.997
 9290SOL    HW238550   4.177   3.207   3.006
 9291SOL     OW38551   1.860   7.009   0.226
 9291SOL    HW138552   1.889   6.918   0.257
 9291SOL    HW238553   1.900   7.079   0.284
 9292SOL     OW38554   1.180   4.911   2.814
 9292SOL    HW138555   1.212   4.948   2.901
 9292SOL    HW238556   1.190   4.981   2.743
 9293SOL     OW38557   1.272   0.338   2.036
 9293SOL    HW138558   1.193   0.361   2.093
 9293SOL    HW238559   1.250   0.355   1.940
 9294SOL     OW38560   0.516   6.524   3.002
 9294SOL    HW138561   0.490   6.479   3.088
 9294SOL    HW238562   0.505   6.460   2.926
 9295SOL     OW38563   5.870   9.635   3.843
 9295SOL    HW138564   5.931   9.703   3.803
 9295SOL    HW238565   5.807   9.601   3.773
 9296SOL     OW38566   4.706   1.607   0.110
 9296SOL    HW138567   4.628   1.648   0.063
 9296SOL    HW238568   4.672   1.548   0.184
 9297SOL     OW38569   2.842   0.075   4.077
 9297SOL    HW138570   2.821   0.152   4.137
 9297SOL    HW238571   2.901   0.011   4.125
 9298SOL     OW38572   1.195   9.868   4.085
 9298SOL    HW138573   1.131   9.823   4.149
 9298SOL    HW238574   1.161   9.857   3.992
 9299SOL     OW38575   8.371   8.377   2.651
 9299SOL    HW138576   8.470   8.387   2.654
 9299SOL    HW238577   8.328   8.467   2.663
 9300SOL     OW38578   3.449   5.146   2.736
 9300SOL    HW138579   3.370   5.178   2.788
 9300SOL    HW238580   3.501   5.081   2.790
 9301SOL     OW38581   1.746   1.098   0.439
 9301SOL    HW138582   1.679   1.172   0.430
 9301SOL    HW238583   1.738   1.037   0.360
 9302SOL     OW38584   1.193   2.151   1.097
 9302SOL    HW138585   1.184   2.077   1.163
 9302SOL    HW238586   1.287   2.187   1.100
 9303SOL     OW38587   7.900   1.970   2.152
 9303SOL    HW138588   7.938   1.968   2.060
 9303SOL    HW238589   7.927   1.887   2.202
 9304SOL     OW38590   0.468   8.852   0.831
 9304SOL    HW138591   0.531   8.919   0.872
 9304SOL    HW238592   0.499   8.829   0.739
 9305SOL     OW38593   1.941   2.855   0.413
 9305SOL    HW138594   2.023   2.799   0.429
 9305SOL    HW238595   1.860   2.797   0.417
 9306SOL     OW38596   0.032   8.543   0.084
 9306SOL    HW138597   9.952   8.514   0.031
 9306SOL    HW238598   0.007   8.553   0.181
 9307SOL     OW38599   9.930   1.892   0.193
 9307SOL    HW138600   0.001   1.871   0.260
 9307SOL    HW238601   9.954   1.977   0.145
 9308SOL     OW38602   2.619   6.767   2.907
 9308SOL    HW138603   2.576   6.677   2.918
 9308SOL    HW238604   2.626   6.812   2.997
 9309SOL     OW38605   3.948   6.444   1.470
 9309SOL    HW138606   3.955   6.348   1.498
 9309SOL    HW238607   3.864   6.483   1.509
 9310SOL     OW38608   7.405   0.214   2.118
 9310SOL    HW138609   7.471   0.204   2.043
 9310SOL    HW238610   7.353   0.299   2.105
 9311SOL     OW38611   3.861   2.712   3.967
 9311SOL    HW138612   3.939   2.681   4.022
 9311SOL    HW238613   3.776   2.682   4.010
 9312SOL     OW38614   9.092   5.980   2.106
 9312SOL    HW138615   9.143   5.901   2.070
 9312SOL    HW238616   9.155   6.039   2.157
 9313SOL     OW38617   7.934   2.133   3.547
 9313SOL    HW138618   8.024   2.093   3.532
 9313SOL    HW238619   7.930   2.224   3.506
 9314SOL     OW38620   1.972   4.571   2.069
 9314SOL    HW138621   2.048   4.512   2.041
 9314SOL    HW238622   1.895   4.515   2.099
 9315SOL     OW38623   2.525   7.835   1.640
 9315SOL    HW138624   2.479   7.869   1.558
 9315SOL    HW238625   2.521   7.904   1.712
 9316SOL     OW38626   1.682   5.635   3.943
 9316SOL    HW138627   1.586   5.623   3.918
 9316SOL    HW238628   1.727   5.545   3.949
 9317SOL     OW38629   1.573   0.795   1.973
 9317SOL    HW138630   1.583   0.696   1.985
 9317SOL    HW238631   1.490   0.826   2.017
 9318SOL     OW38632   1.467   6.137   2.133
 9318SOL    HW138633   1.525   6.199   2.186
 9318SOL    HW238634   1.375   6.176   2.125
 9319SOL     OW38635   2.452   8.258   1.651
 9319SOL    HW138636   2.413   8.258   1.559
 9319SOL    HW238637   2.421   8.340   1.700
 9320SOL     OW38638   8.827   4.409   2.124
 9320SOL    HW138639   8.736   4.373   2.100
 9320SOL    HW238640   8.884   4.335   2.157
 9321SOL     OW38641   9.868   2.764   3.554
 9321SOL    HW138642   9.823   2.737   3.469
 9321SOL    HW238643   9.880   2.864   3.555
 9322SOL     OW38644   9.333   3.388   3.066
 9322SOL    HW138645   9.309   3.463   3.128
 9322SOL    HW238646   9.427   3.359   3.084
 9323SOL     OW38647   5.433   6.859   1.649
 9323SOL    HW138648   5.444   6.760   1.649
 9323SOL    HW238649   5.452   6.894   1.557
 9324SOL     OW38650   2.332   1.242   0.561
 9324SOL    HW138651   2.277   1.292   0.493
 9324SOL    HW238652   2.429   1.255   0.540
 9325SOL     OW38653   8.324   6.881   0.907
 9325SOL    HW138654   8.337   6.851   0.812
 9325SOL    HW238655   8.323   6.981   0.911
 9326SOL     OW38656   2.492   8.051   1.826
 9326SOL    HW138657   2.408   8.026   1.874
 9326SOL    HW238658   2.473   8.124   1.760
 9327SOL     OW38659   4.512   9.388   0.636
 9327SOL    HW138660   4.525   9.302   0.686
 9327SOL    HW238661   4.424   9.428   0.663
 9328SOL     OW38662   3.065   6.351   3.959
 9328SOL    HW138663   3.041   6.265   4.005
 9328SOL    HW238664   3.154   6.383   3.992
 9329SOL     OW38665   8.869   6.515   2.768
 9329SOL    HW138666   8.816   6.587   2.724
 9329SOL    HW238667   8.898   6.545   2.858
 9330SOL     OW38668   7.645   2.191   1.497
 9330SOL    HW138669   7.660   2.181   1.595
 9330SOL    HW238670   7.562   2.142   1.470
 9331SOL     OW38671   1.568   5.115   0.652
 9331SOL    HW138672   1.581   5.195   0.711
 9331SOL    HW238673   1.609   5.035   0.697
 9332SOL     OW38674   8.374   6.135   2.237
 9332SOL    HW138675   8.472   6.155   2.241
 9332SOL    HW238676   8.325   6.196   2.299
 9333SOL     OW38677   8.603   1.671   0.875
 9333SOL    HW138678   8.625   1.640   0.782
 9333SOL    HW238679   8.664   1.626   0.940
 9334SOL     OW38680   9.517   7.999   4.188
 9334SOL    HW138681   9.485   8.069   4.252
 9334SOL    HW238682   9.442   7.935   4.169
 9335SOL     OW38683   2.573   2.656   0.813
 9335SOL    HW138684   2.585   2.726   0.743
 9335SOL    HW238685   2.582   2.698   0.904
 9336SOL     OW38686   1.098   9.209   2.969
 9336SOL    HW138687   1.178   9.256   2.932
 9336SOL    HW238688   1.081   9.239   3.063
 9337SOL     OW38689   5.166   1.047   3.666
 9337SOL    HW138690   5.120   1.121   3.714
 9337SOL    HW238691   5.244   1.083   3.615
 9338SOL     OW38692   1.061   6.565   3.745
 9338SOL    HW138693   1.015   6.506   3.812
 9338SOL    HW238694   0.993   6.599   3.679
 9339SOL     OW38695   7.632   0.327   3.027
 9339SOL    HW138696   7.612   0.335   2.929
 9339SOL    HW238697   7.574   0.391   3.078
 9340SOL     OW38698   0.714   9.266   2.336
 9340SOL    HW138699   0.631   9.212   2.323
 9340SOL    HW238700   0.713   9.343   2.271
 9341SOL     OW38701   8.313   4.330   1.985
 9341SOL    HW138702   8.413   4.330   1.991
 9341SOL    HW238703   8.277   4.415   2.023
 9342SOL     OW38704   8.339   8.471   1.877
 9342SOL    HW138705   8.392   8.437   1.800
 9342SOL    HW238706   8.283   8.547   1.848
 9343SOL     OW38707   4.883   4.326   0.378
 9343SOL    HW138708   4.845   4.342   0.470
 9343SOL    HW238709   4.852   4.398   0.317
 9344SOL     OW38710   8.085   4.943   3.551
 9344SOL    HW138711   8.158   4.877   3.571
 9344SOL    HW238712   8.038   4.916   3.467
 9345SOL     OW38713   6.243   7.521   3.953
 9345SOL    HW138714   6.252   7.455   4.027
 9345SOL    HW238715   6.199   7.477   3.874
 9346SOL     OW38716   3.419   0.188   0.650
 9346SOL    HW138717   3.365   0.207   0.569
 9346SOL    HW238718   3.457   0.095   0.644
 9347SOL     OW38719   7.529   9.329   3.270
 9347SOL    HW138720   7.574   9.400   3.216
 9347SOL    HW238721   7.543   9.348   3.368
 9348SOL     OW38722   6.930   9.040   3.086
 9348SOL    HW138723   7.012   9.096   3.088
 9348SOL    HW238724   6.904   9.014   3.179
 9349SOL     OW38725   4.262   0.953   0.891
 9349SOL    HW138726   4.250   1.046   0.856
 9349SOL    HW238727   4.177   0.902   0.880
 9350SOL     OW38728   5.842   9.919   1.806
 9350SOL    HW138729   5.844   9.996   1.869
 9350SOL    HW238730   5.823   9.835   1.857
 9351SOL     OW38731   9.498   9.704   2.520
 9351SOL    HW138732   9.573   9.753   2.565
 9351SOL    HW238733   9.503   9.718   2.422
 9352SOL     OW38734   6.934   8.112   2.192
 9352SOL    HW138735   6.978   8.113   2.102
 9352SOL    HW238736   6.846   8.065   2.186
 9353SOL     OW38737   7.023   7.954   3.170
 9353SOL    HW138738   7.071   8.040   3.154
 9353SOL    HW238739   6.939   7.972   3.222
 9354SOL     OW38740   0.038   9.578   0.706
 9354SOL    HW138741   0.094   9.657   0.684
 9354SOL    HW238742   0.059   9.503   0.643
 9355SOL     OW38743   7.620   7.863   3.391
 9355SOL    HW138744   7.593   7.821   3.477
 9355SOL    HW238745   7.627   7.792   3.320
 9356SOL     OW38746   4.114   8.959   0.085
 9356SOL    HW138747   4.066   8.986   0.168
 9356SOL    HW238748   4.201   9.008   0.079
 9357SOL     OW38749   5.342   9.952   3.128
 9357SOL    HW138750   5.315   9.903   3.210
 9357SOL    HW238751   5.441   9.966   3.129
 9358SOL     OW38752   8.365   1.805   1.618
 9358SOL    HW138753   8.290   1.863   1.587
 9358SOL    HW238754   8.451   1.836   1.576
 9359SOL     OW38755   0.114   2.436   1.179
 9359SOL    HW138756   0.109   2.357   1.117
 9359SOL    HW238757   0.184   2.419   1.248
 9360SOL     OW38758   4.090   1.890   2.658
 9360SOL    HW138759   3.993   1.878   2.639
 9360SOL    HW238760   4.140   1.808   2.630
 9361SOL     OW38761   2.275   9.273   2.227
 9361SOL    HW138762   2.362   9.228   2.204
 9361SOL    HW238763   2.284   9.372   2.211
 9362SOL     OW38764   3.365   5.088   0.487
 9362SOL    HW138765   3.378   5.151   0.564
 9362SOL    HW238766   3.406   5.000   0.509
 9363SOL     OW38767   2.327   0.180   3.348
 9363SOL    HW138768   2.350   0.083   3.343
 9363SOL    HW238769   2.240   0.197   3.302
 9364SOL     OW38770   3.574   6.777   2.380
 9364SOL    HW138771   3.634   6.833   2.323
 9364SOL    HW238772   3.480   6.782   2.345
 9365SOL     OW38773   9.615   5.828   1.114
 9365SOL    HW138774   9.580   5.801   1.025
 9365SOL    HW238775   9.541   5.826   1.182
 9366SOL     OW38776   3.727   4.800   2.434
 9366SOL    HW138777   3.766   4.828   2.522
 9366SOL    HW238778   3.790   4.738   2.388
 9367SOL     OW38779   2.030   6.320   0.959
 9367SOL    HW138780   2.030   6.251   1.032
 9367SOL    HW238781   1.938   6.329   0.922
 9368SOL     OW38782   3.845   7.903   0.340
 9368SOL    HW138783   3.832   7.900   0.439
 9368SOL    HW238784   3.940   7.925   0.319
 9369SOL     OW38785   7.985   6.162   4.188
 9369SOL    HW138786   7.992   6.067   4.159
 9369SOL    HW238787   7.890   6.190   4.188
 9370SOL     OW38788   9.969   4.776   1.760
 9370SOL    HW138789   0.003   4.682   1.766
 9370SOL    HW238790   0.039   4.839   1.796
 9371SOL     OW38791   1.337   4.733   2.667
 9371SOL    HW138792   1.301   4.640   2.673
 9371SOL    HW238793   1.286   4.793   2.729
 9372SOL     OW38794   4.302   2.296   4.178
 9372SOL    HW138795   4.237   2.239   4.228
 9372SOL    HW238796   4.295   2.390   4.211
 9373SOL     OW38797   8.407   1.676   3.651
 9373SOL    HW138798   8.317   1.709   3.624
 9373SOL    HW238799   8.397   1.595   3.709
 9374SOL     OW38800   9.846   4.751   4.345
 9374SOL    HW138801   9.873   4.659   4.317
 9374SOL    HW238802   9.927   4.809   4.351
 9375SOL     OW38803   4.308   8.117   2.877
 9375SOL    HW138804   4.407   8.110   2.863
 9375SOL    HW238805   4.272   8.190   2.820
 9376SOL     OW38806   8.977   1.293   3.418
 9376SOL    HW138807   8.898   1.343   3.382
 9376SOL    HW238808   8.965   1.278   3.516
 9377SOL     OW38809   3.360   9.320   1.957
 9377SOL    HW138810   3.289   9.343   2.024
 9377SOL    HW238811   3.360   9.221   1.940
 9378SOL     OW38812   0.428   7.791   1.204
 9378SOL    HW138813   0.507   7.763   1.258
 9378SOL    HW238814   0.402   7.885   1.227
 9379SOL     OW38815   7.633   7.636   3.218
 9379SOL    HW138816   7.719   7.595   3.250
 9379SOL    HW238817   7.563   7.565   3.211
 9380SOL     OW38818   5.162   7.801   1.702
 9380SOL    HW138819   5.139   7.706   1.680
 9380SOL    HW238820   5.162   7.813   1.801
 9381SOL     OW38821   9.839   5.289   2.291
 9381SOL    HW138822   9.817   5.383   2.265
 9381SOL    HW238823   9.799   5.270   2.381
 9382SOL     OW38824   0.905   3.680   1.661
 9382SOL    HW138825   0.871   3.587   1.648
 9382SOL    HW238826   0.943   3.690   1.753
 9383SOL     OW38827   0.407   4.429   1.236
 9383SOL    HW138828   0.319   4.437   1.284
 9383SOL    HW238829   0.432   4.518   1.197
 9384SOL     OW38830   8.334   7.417   0.612
 9384SOL    HW138831   8.394   7.392   0.536
 9384SOL    HW238832   8.388   7.463   0.683
 9385SOL     OW38833   4.810   3.099   1.362
 9385SOL    HW138834   4.803   3.163   1.439
 9385SOL    HW238835   4.788   3.146   1.277
 9386SOL     OW38836   0.926   3.568   2.721
 9386SOL    HW138837   0.871   3.520   2.789
 9386SOL    HW238838   0.915   3.524   2.632
 9387SOL     OW38839   0.805   1.344   4.168
 9387SOL    HW138840   0.823   1.300   4.080
 9387SOL    HW238841   0.732   1.296   4.217
 9388SOL     OW38842   4.262   2.431   2.360
 9388SOL    HW138843   4.171   2.428   2.317
 9388SOL    HW238844   4.325   2.376   2.305
 9389SOL     OW38845   3.311   4.801   0.228
 9389SOL    HW138846   3.405   4.784   0.256
 9389SOL    HW238847   3.299   4.898   0.207
 9390SOL     OW38848   1.783   0.321   2.265
 9390SOL    HW138849   1.691   0.333   2.230
 9390SOL    HW238850   1.779   0.279   2.356
 9391SOL     OW38851   3.174   9.377   1.487
 9391SOL    HW138852   3.099   9.378   1.553
 9391SOL    HW238853   3.163   9.453   1.423
 9392SOL     OW38854   7.567   1.006   0.935
 9392SOL    HW138855   7.582   1.019   1.033
 9392SOL    HW238856   7.548   1.094   0.892
 9393SOL     OW38857   1.472   7.919   4.235
 9393SOL    HW138858   1.467   7.992   4.303
 9393SOL    HW238859   1.546   7.855   4.260
 9394SOL     OW38860   0.162   5.202   4.092
 9394SOL    HW138861   0.260   5.198   4.110
 9394SOL    HW238862   0.144   5.168   3.999
 9395SOL     OW38863   7.696   8.367   4.376
 9395SOL    HW138864   7.669   8.356   4.471
 9395SOL    HW238865   7.615   8.389   4.321
 9396SOL     OW38866   7.935   1.800   0.558
 9396SOL    HW138867   7.933   1.822   0.655
 9396SOL    HW238868   7.841   1.798   0.522
 9397SOL     OW38869   3.187   2.330   2.797
 9397SOL    HW138870   3.245   2.294   2.871
 9397SOL    HW238871   3.152   2.255   2.742
 9398SOL     OW38872   1.906   8.258   0.950
 9398SOL    HW138873   1.884   8.162   0.932
 9398SOL    HW238874   1.997   8.278   0.912
 9399SOL     OW38875   4.484   8.266   2.644
 9399SOL    HW138876   4.522   8.204   2.713
 9399SOL    HW238877   4.522   8.241   2.554
 9400SOL     OW38878   0.516   1.094   3.628
 9400SOL    HW138879   0.465   1.009   3.642
 9400SOL    HW238880   0.477   1.143   3.549
 9401SOL     OW38881   9.291   8.939   4.126
 9401SOL    HW138882   9.332   9.027   4.102
 9401SOL    HW238883   9.240   8.947   4.211
 9402SOL     OW38884   2.351   3.159   4.415
 9402SOL    HW138885   2.422   3.200   4.358
 9402SOL    HW238886   2.321   3.225   4.484
 9403SOL     OW38887   7.775   5.374   0.520
 9403SOL    HW138888   7.715   5.354   0.598
 9403SOL    HW238889   7.842   5.443   0.548
 9404SOL     OW38890   7.434   9.078   0.459
 9404SOL    HW138891   7.526   9.102   0.429
 9404SOL    HW238892   7.414   9.124   0.545
 9405SOL     OW38893   8.168   3.673   0.937
 9405SOL    HW138894   8.116   3.710   0.861
 9405SOL    HW238895   8.234   3.741   0.969
 9406SOL     OW38896   9.856   3.894   3.259
 9406SOL    HW138897   9.899   3.864   3.344
 9406SOL    HW238898   9.761   3.861   3.256
 9407SOL     OW38899   4.545   5.259   1.362
 9407SOL    HW138900   4.641   5.250   1.334
 9407SOL    HW238901   4.515   5.353   1.346
 9408SOL     OW38902   0.911   4.093   3.608
 9408SOL    HW138903   0.920   4.032   3.529
 9408SOL    HW238904   0.935   4.186   3.581
 9409SOL     OW38905   4.349   9.398   2.148
 9409SOL    HW138906   4.266   9.434   2.107
 9409SOL    HW238907   4.406   9.473   2.181
 9410SOL     OW38908   9.826   0.341   0.738
 9410SOL    HW138909   9.879   0.421   0.768
 9410SOL    HW238910   9.729   0.364   0.736
 9411SOL     OW38911   6.750   8.132   4.283
 9411SOL    HW138912   6.683   8.178   4.226
 9411SOL    HW238913   6.784   8.051   4.236
 9412SOL     OW38914   2.970   3.336   2.393
 9412SOL    HW138915   2.924   3.250   2.374
 9412SOL    HW238916   3.052   3.343   2.335
 9413SOL     OW38917   4.570   3.641   0.499
 9413SOL    HW138918   4.598   3.735   0.518
 9413SOL    HW238919   4.510   3.608   0.572
 9414SOL     OW38920   1.647   6.077   2.897
 9414SOL    HW138921   1.556   6.113   2.919
 9414SOL    HW238922   1.641   5.980   2.876
 9415SOL     OW38923   2.778   6.971   3.674
 9415SOL    HW138924   2.872   6.950   3.700
 9415SOL    HW238925   2.764   7.070   3.674
 9416SOL     OW38926   6.024   8.172   2.810
 9416SOL    HW138927   6.015   8.168   2.710
 9416SOL    HW238928   6.117   8.145   2.836
 9417SOL     OW38929   7.078   7.576   2.105
 9417SOL    HW138930   7.078   7.635   2.185
 9417SOL    HW238931   7.045   7.485   2.130
 9418SOL     OW38932   3.746   2.805   1.806
 9418SOL    HW138933   3.772   2.762   1.893
 9418SOL    HW238934   3.812   2.780   1.736
 9419SOL     OW38935   3.668   3.592   1.310
 9419SOL    HW138936   3.741   3.558   1.370
 9419SOL    HW238937   3.617   3.514   1.273
 9420SOL     OW38938   9.884   5.803   1.129
 9420SOL    HW138939   9.930   5.860   1.060
 9420SOL    HW238940   9.785   5.817   1.123
 9421SOL     OW38941   0.160   7.713   1.905
 9421SOL    HW138942   0.201   7.720   1.996
 9421SOL    HW238943   0.180   7.796   1.852
 9422SOL     OW38944   0.163   9.268   2.812
 9422SOL    HW138945   0.105   9.194   2.845
 9422SOL    HW238946   0.105   9.345   2.784
 9423SOL     OW38947   9.492   7.507   1.815
 9423SOL    HW138948   9.413   7.514   1.876
 9423SOL    HW238949   9.505   7.411   1.790
 9424SOL     OW38950   8.723   6.336   1.621
 9424SOL    HW138951   8.673   6.259   1.661
 9424SOL    HW238952   8.732   6.409   1.689
 9425SOL     OW38953   4.439   7.607   1.274
 9425SOL    HW138954   4.496   7.659   1.338
 9425SOL    HW238955   4.467   7.511   1.275
 9426SOL     OW38956   4.251   2.775   0.216
 9426SOL    HW138957   4.263   2.874   0.208
 9426SOL    HW238958   4.165   2.756   0.263
 9427SOL     OW38959   7.551   3.702   0.641
 9427SOL    HW138960   7.544   3.613   0.687
 9427SOL    HW238961   7.647   3.726   0.630
 9428SOL     OW38962   8.421   0.676   2.373
 9428SOL    HW138963   8.477   0.751   2.408
 9428SOL    HW238964   8.460   0.589   2.403
 9429SOL     OW38965   3.671   9.527   0.531
 9429SOL    HW138966   3.670   9.428   0.541
 9429SOL    HW238967   3.719   9.552   0.447
 9430SOL     OW38968   2.561   0.924   2.332
 9430SOL    HW138969   2.597   0.944   2.240
 9430SOL    HW238970   2.631   0.877   2.386
 9431SOL     OW38971   1.620   3.143   0.154
 9431SOL    HW138972   1.565   3.071   0.111
 9431SOL    HW238973   1.713   3.111   0.167
 9432SOL     OW38974   3.561   1.824   2.516
 9432SOL    HW138975   3.516   1.751   2.568
 9432SOL    HW238976   3.502   1.905   2.515
 9433SOL     OW38977   3.576   8.200   0.492
 9433SOL    HW138978   3.615   8.233   0.578
 9433SOL    HW238979   3.647   8.203   0.421
 9434SOL     OW38980   8.417   0.157   4.241
 9434SOL    HW138981   8.480   0.103   4.185
 9434SOL    HW238982   8.382   0.101   4.316
 9435SOL     OW38983   3.172   5.526   0.559
 9435SOL    HW138984   3.195   5.616   0.595
 9435SOL    HW238985   3.086   5.495   0.599
 9436SOL     OW38986   8.345   6.465   1.858
 9436SOL    HW138987   8.370   6.368   1.861
 9436SOL    HW238988   8.413   6.516   1.806
 9437SOL     OW38989   2.877   3.482   1.371
 9437SOL    HW138990   2.798   3.422   1.355
 9437SOL    HW238991   2.861   3.536   1.454
 9438SOL     OW38992   1.397   1.490   1.799
 9438SOL    HW138993   1.495   1.475   1.804
 9438SOL    HW238994   1.363   1.460   1.710
 9439SOL     OW38995   9.511   0.867   0.821
 9439SOL    HW138996   9.541   0.936   0.887
 9439SOL    HW238997   9.484   0.911   0.736
 9440SOL     OW38998   5.600   0.432   1.874
 9440SOL    HW138999   5.558   0.493   1.807
 9440SOL    HW239000   5.533   0.363   1.903
 9441SOL     OW39001   9.325   3.268   0.424
 9441SOL    HW139002   9.392   3.339   0.400
 9441SOL    HW239003   9.334   3.245   0.521
 9442SOL     OW39004   0.531   1.692   4.363
 9442SOL    HW139005   0.614   1.637   4.374
 9442SOL    HW239006   0.473   1.651   4.293
 9443SOL     OW39007   9.765   6.461   2.037
 9443SOL    HW139008   9.740   6.459   2.134
 9443SOL    HW239009   9.788   6.368   2.007
 9444SOL     OW39010   7.154   9.187   3.126
 9444SOL    HW139011   7.153   9.253   3.201
 9444SOL    HW239012   7.200   9.227   3.047
 9445SOL     OW39013   8.441   8.028   1.097
 9445SOL    HW139014   8.428   8.120   1.135
 9445SOL    HW239015   8.538   8.013   1.078
 9446SOL     OW39016   9.979   5.244   0.330
 9446SOL    HW139017   9.930   5.331   0.331
 9446SOL    HW239018   0.060   5.250   0.387
 9447SOL     OW39019   7.216   8.559   3.437
 9447SOL    HW139020   7.312   8.543   3.460
 9447SOL    HW239021   7.210   8.635   3.372
 9448SOL     OW39022   6.879   7.627   3.426
 9448SOL    HW139023   6.876   7.560   3.500
 9448SOL    HW239024   6.927   7.709   3.458
 9449SOL     OW39025   4.593   4.800   1.224
 9449SOL    HW139026   4.606   4.812   1.322
 9449SOL    HW239027   4.530   4.870   1.190
 9450SOL     OW39028   1.857   1.297   2.279
 9450SOL    HW139029   1.921   1.304   2.202
 9450SOL    HW239030   1.830   1.389   2.307
 9451SOL     OW39031   2.289   6.090   0.343
 9451SOL    HW139032   2.242   6.011   0.305
 9451SOL    HW239033   2.380   6.064   0.373
 9452SOL     OW39034   0.532   3.573   0.083
 9452SOL    HW139035   0.566   3.481   0.062
 9452SOL    HW239036   0.434   3.568   0.105
 9453SOL     OW39037   0.894   3.846   0.362
 9453SOL    HW139038   0.815   3.789   0.338
 9453SOL    HW239039   0.976   3.808   0.320
 9454SOL     OW39040   8.841   9.303   3.662
 9454SOL    HW139041   8.836   9.401   3.679
 9454SOL    HW239042   8.931   9.269   3.691
 9455SOL     OW39043   3.912   7.680   2.659
 9455SOL    HW139044   3.860   7.629   2.591
 9455SOL    HW239045   3.993   7.719   2.617
 9456SOL     OW39046   8.463   6.515   2.243
 9456SOL    HW139047   8.372   6.504   2.202
 9456SOL    HW239048   8.462   6.483   2.337
 9457SOL     OW39049   9.918   8.308   0.407
 9457SOL    HW139050   9.831   8.308   0.458
 9457SOL    HW239051   9.993   8.296   0.471
 9458SOL     OW39052   0.766   3.148   0.851
 9458SOL    HW139053   0.679   3.192   0.829
 9458SOL    HW239054   0.828   3.215   0.893
 9459SOL     OW39055   7.698   4.209   0.640
 9459SOL    HW139056   7.656   4.297   0.662
 9459SOL    HW239057   7.630   4.136   0.651
 9460SOL     OW39058   0.576   9.448   2.654
 9460SOL    HW139059   0.494   9.391   2.653
 9460SOL    HW239060   0.657   9.391   2.639
 9461SOL     OW39061   8.896   1.816   2.458
 9461SOL    HW139062   8.833   1.751   2.501
 9461SOL    HW239063   8.888   1.809   2.358
 9462SOL     OW39064   8.281   7.571   4.220
 9462SOL    HW139065   8.266   7.473   4.234
 9462SOL    HW239066   8.323   7.586   4.131
 9463SOL     OW39067   3.284   0.679   3.181
 9463SOL    HW139068   3.300   0.777   3.169
 9463SOL    HW239069   3.331   0.629   3.108
 9464SOL     OW39070   7.907   6.242   3.866
 9464SOL    HW139071   7.996   6.254   3.911
 9464SOL    HW239072   7.844   6.314   3.897
 9465SOL     OW39073   9.338   9.318   1.342
 9465SOL    HW139074   9.346   9.408   1.385
 9465SOL    HW239075   9.422   9.266   1.359
 9466SOL     OW39076   2.489   0.148   2.569
 9466SOL    HW139077   2.516   0.177   2.477
 9466SOL    HW239078   2.390   0.138   2.572
 9467SOL     OW39079   4.309   2.264   2.812
 9467SOL    HW139080   4.380   2.277   2.882
 9467SOL    HW239081   4.319   2.334   2.741
 9468SOL     OW39082   9.784   3.671   2.323
 9468SOL    HW139083   9.706   3.610   2.314
 9468SOL    HW239084   9.863   3.632   2.275
 9469SOL     OW39085   8.611   4.764   3.628
 9469SOL    HW139086   8.605   4.729   3.535
 9469SOL    HW239087   8.570   4.855   3.633
 9470SOL     OW39088   4.274   9.913   2.687
 9470SOL    HW139089   4.209   9.945   2.618
 9470SOL    HW239090   4.277   9.978   2.763
 9471SOL     OW39091   3.448   7.006   0.853
 9471SOL    HW139092   3.440   6.907   0.868
 9471SOL    HW239093   3.405   7.030   0.767
 9472SOL     OW39094   5.554   9.895   3.367
 9472SOL    HW139095   5.461   9.859   3.368
 9472SOL    HW239096   5.619   9.822   3.388
 9473SOL     OW39097   2.895   9.144   1.453
 9473SOL    HW139098   2.796   9.136   1.450
 9473SOL    HW239099   2.922   9.205   1.528
 9474SOL     OW39100   4.816   3.362   3.057
 9474SOL    HW139101   4.726   3.319   3.068
 9474SOL    HW239102   4.815   3.421   2.976
 9475SOL     OW39103   6.420   7.715   2.620
 9475SOL    HW139104   6.332   7.749   2.652
 9475SOL    HW239105   6.492   7.748   2.681
 9476SOL     OW39106   3.240   4.610   1.631
 9476SOL    HW139107   3.335   4.627   1.604
 9476SOL    HW239108   3.192   4.564   1.557
 9477SOL     OW39109   0.846   6.077   2.226
 9477SOL    HW139110   0.789   6.019   2.166
 9477SOL    HW239111   0.851   6.169   2.188
 9478SOL     OW39112   5.815   0.150   3.583
 9478SOL    HW139113   5.890   0.127   3.521
 9478SOL    HW239114   5.829   0.242   3.620
 9479SOL     OW39115   2.065   2.029   3.394
 9479SOL    HW139116   2.153   2.034   3.441
 9479SOL    HW239117   2.012   1.952   3.430
 9480SOL     OW39118   4.718   6.621   1.656
 9480SOL    HW139119   4.793   6.674   1.697
 9480SOL    HW239120   4.749   6.582   1.569
 9481SOL     OW39121   8.275   0.940   2.509
 9481SOL    HW139122   8.260   0.918   2.605
 9481SOL    HW239123   8.219   0.880   2.452
 9482SOL     OW39124   2.960   3.456   3.183
 9482SOL    HW139125   2.975   3.513   3.264
 9482SOL    HW239126   2.876   3.484   3.137
 9483SOL     OW39127   6.669   8.749   3.739
 9483SOL    HW139128   6.570   8.755   3.727
 9483SOL    HW239129   6.704   8.836   3.773
 9484SOL     OW39130   3.711   0.954   1.017
 9484SOL    HW139131   3.788   1.017   1.017
 9484SOL    HW239132   3.744   0.860   1.027
 9485SOL     OW39133   1.713   3.421   0.927
 9485SOL    HW139134   1.695   3.488   0.855
 9485SOL    HW239135   1.627   3.394   0.970
 9486SOL     OW39136   3.796   1.023   2.927
 9486SOL    HW139137   3.772   0.963   3.002
 9486SOL    HW239138   3.853   0.974   2.861
 9487SOL     OW39139   2.381   3.319   0.474
 9487SOL    HW139140   2.384   3.409   0.517
 9487SOL    HW239141   2.473   3.280   0.469
 9488SOL     OW39142   7.347   0.611   4.126
 9488SOL    HW139143   7.355   0.625   4.027
 9488SOL    HW239144   7.376   0.695   4.173
 9489SOL     OW39145   9.436   2.408   2.111
 9489SOL    HW139146   9.457   2.352   2.191
 9489SOL    HW239147   9.356   2.370   2.064
 9490SOL     OW39148   3.891   3.564   3.565
 9490SOL    HW139149   3.843   3.636   3.516
 9490SOL    HW239150   3.989   3.571   3.547
 9491SOL     OW39151   0.088   9.927   1.156
 9491SOL    HW139152   0.106   9.964   1.065
 9491SOL    HW239153   0.069   9.829   1.150
 9492SOL     OW39154   6.498   9.983   3.560
 9492SOL    HW139155   6.524   9.981   3.656
 9492SOL    HW239156   6.569   9.937   3.506
 9493SOL     OW39157   0.265   7.663   3.504
 9493SOL    HW139158   0.363   7.648   3.490
 9493SOL    HW239159   0.237   7.620   3.590
 9494SOL     OW39160   1.737   3.952   0.121
 9494SOL    HW139161   1.804   3.941   0.047
 9494SOL    HW239162   1.761   4.033   0.175
 9495SOL     OW39163   9.321   0.373   2.896
 9495SOL    HW139164   9.259   0.448   2.916
 9495SOL    HW239165   9.412   0.393   2.932
 9496SOL     OW39166   9.827   8.906   3.905
 9496SOL    HW139167   9.815   8.900   4.004
 9496SOL    HW239168   9.867   8.995   3.882
 9497SOL     OW39169   8.948   6.757   1.717
 9497SOL    HW139170   8.977   6.671   1.758
 9497SOL    HW239171   8.924   6.743   1.621
 9498SOL     OW39172   9.859   0.807   0.732
 9498SOL    HW139173   9.891   0.722   0.774
 9498SOL    HW239174   9.938   0.859   0.699
 9499SOL     OW39175   3.142   4.470   1.411
 9499SOL    HW139176   3.164   4.374   1.425
 9499SOL    HW239177   3.200   4.507   1.339
 9500SOL     OW39178   4.222   9.177   2.251
 9500SOL    HW139179   4.281   9.251   2.220
 9500SOL    HW239180   4.276   9.094   2.263
 9501SOL     OW39181   2.181   0.548   2.739
 9501SOL    HW139182   2.225   0.555   2.829
 9501SOL    HW239183   2.150   0.454   2.725
 9502SOL     OW39184   1.608   4.197   4.326
 9502SOL    HW139185   1.640   4.228   4.237
 9502SOL    HW239186   1.602   4.275   4.388
 9503SOL     OW39187   5.485   7.581   2.699
 9503SOL    HW139188   5.461   7.676   2.677
 9503SOL    HW239189   5.584   7.570   2.695
 9504SOL     OW39190   8.397   0.035   0.532
 9504SOL    HW139191   8.457   9.964   0.569
 9504SOL    HW239192   8.451   0.117   0.513
 9505SOL     OW39193   3.292   6.079   3.221
 9505SOL    HW139194   3.222   6.151   3.216
 9505SOL    HW239195   3.382   6.121   3.212
 9506SOL     OW39196   2.598   7.788   3.379
 9506SOL    HW139197   2.595   7.796   3.280
 9506SOL    HW239198   2.692   7.801   3.411
 9507SOL     OW39199   7.715   0.765   1.188
 9507SOL    HW139200   7.690   0.860   1.206
 9507SOL    HW239201   7.711   0.712   1.273
 9508SOL     OW39202   0.831   4.694   4.269
 9508SOL    HW139203   0.761   4.754   4.230
 9508SOL    HW239204   0.921   4.730   4.247
 9509SOL     OW39205   4.106   4.077   1.710
 9509SOL    HW139206   4.092   4.027   1.624
 9509SOL    HW239207   4.182   4.141   1.700
 9510SOL     OW39208   8.859   3.213   0.477
 9510SOL    HW139209   8.946   3.179   0.440
 9510SOL    HW239210   8.795   3.226   0.402
 9511SOL     OW39211   4.325   7.896   2.152
 9511SOL    HW139212   4.356   7.852   2.236
 9511SOL    HW239213   4.287   7.986   2.173
 9512SOL     OW39214   8.610   9.419   4.097
 9512SOL    HW139215   8.548   9.414   4.175
 9512SOL    HW239216   8.603   9.336   4.042
 9513SOL     OW39217   9.320   5.975   0.812
 9513SOL    HW139218   9.303   5.900   0.876
 9513SOL    HW239219   9.336   6.059   0.863
 9514SOL     OW39220   8.427   8.702   0.123
 9514SOL    HW139221   8.348   8.734   0.177
 9514SOL    HW239222   8.394   8.651   0.044
 9515SOL     OW39223   8.546   1.293   2.113
 9515SOL    HW139224   8.609   1.249   2.048
 9515SOL    HW239225   8.599   1.341   2.183
 9516SOL     OW39226   7.058   9.356   1.822
 9516SOL    HW139227   7.053   9.257   1.817
 9516SOL    HW239228   7.119   9.390   1.750
 9517SOL     OW39229   2.350   8.016   1.165
 9517SOL    HW139230   2.292   7.949   1.119
 9517SOL    HW239231   2.314   8.108   1.146
 9518SOL     OW39232   8.853   4.004   3.503
 9518SOL    HW139233   8.813   3.914   3.520
 9518SOL    HW239234   8.952   3.995   3.491
 9519SOL     OW39235   4.252   9.019   0.758
 9519SOL    HW139236   4.183   9.046   0.826
 9519SOL    HW239237   4.214   9.026   0.666
 9520SOL     OW39238   3.529   0.933   2.815
 9520SOL    HW139239   3.501   0.963   2.906
 9520SOL    HW239240   3.625   0.958   2.799
 9521SOL     OW39241   6.867   9.424   1.184
 9521SOL    HW139242   6.930   9.500   1.197
 9521SOL    HW239243   6.798   9.424   1.256
 9522SOL     OW39244   3.603   0.050   4.368
 9522SOL    HW139245   3.551   0.129   4.398
 9522SOL    HW239246   3.553   0.003   4.295
 9523SOL     OW39247   9.369   3.606   0.778
 9523SOL    HW139248   9.376   3.617   0.679
 9523SOL    HW239249   9.284   3.646   0.810
 9524SOL     OW39250   0.328   9.487   0.510
 9524SOL    HW139251   0.255   9.421   0.530
 9524SOL    HW239252   0.300   9.547   0.436
 9525SOL     OW39253   7.942   9.620   0.783
 9525SOL    HW139254   7.972   9.714   0.801
 9525SOL    HW239255   7.904   9.581   0.866
 9526SOL     OW39256   8.685   1.255   1.684
 9526SOL    HW139257   8.624   1.194   1.633
 9526SOL    HW239258   8.658   1.350   1.669
 9527SOL     OW39259   8.984   5.567   4.351
 9527SOL    HW139260   9.062   5.629   4.352
 9527SOL    HW239261   8.915   5.602   4.287
 9528SOL     OW39262   0.789   0.618   2.936
 9528SOL    HW139263   0.775   0.663   2.847
 9528SOL    HW239264   0.740   0.530   2.936
 9529SOL     OW39265   3.700   0.228   4.130
 9529SOL    HW139266   3.611   0.228   4.174
 9529SOL    HW239267   3.764   0.174   4.185
 9530SOL     OW39268   0.410   2.423   0.395
 9530SOL    HW139269   0.437   2.510   0.437
 9530SOL    HW239270   0.329   2.387   0.442
 9531SOL     OW39271   7.102   9.876   3.652
 9531SOL    HW139272   7.166   9.940   3.696
 9531SOL    HW239273   7.046   9.926   3.586
 9532SOL     OW39274   3.745   7.732   0.143
 9532SOL    HW139275   3.719   7.793   0.068
 9532SOL    HW239276   3.788   7.785   0.216
 9533SOL     OW39277   0.998   1.963   2.975
 9533SOL    HW139278   0.959   2.016   2.899
 9533SOL    HW239279   0.972   2.004   3.062
 9534SOL     OW39280   7.302   1.006   1.763
 9534SOL    HW139281   7.220   0.950   1.768
 9534SOL    HW239282   7.279   1.097   1.731
 9535SOL     OW39283   3.206   5.257   2.381
 9535SOL    HW139284   3.165   5.312   2.454
 9535SOL    HW239285   3.232   5.317   2.305
 9536SOL     OW39286   9.493   8.197   2.313
 9536SOL    HW139287   9.414   8.207   2.252
 9536SOL    HW239288   9.462   8.185   2.407
 9537SOL     OW39289   3.900   7.962   4.177
 9537SOL    HW139290   3.818   7.906   4.170
 9537SOL    HW239291   3.969   7.915   4.232
 9538SOL     OW39292   7.398   1.768   2.817
 9538SOL    HW139293   7.353   1.688   2.775
 9538SOL    HW239294   7.461   1.809   2.752
 9539SOL     OW39295   3.107   8.048   1.474
 9539SOL    HW139296   3.091   7.952   1.495
 9539SOL    HW239297   3.190   8.057   1.419
 9540SOL     OW39298   8.623   7.344   0.685
 9540SOL    HW139299   8.645   7.300   0.598
 9540SOL    HW239300   8.681   7.306   0.757
 9541SOL     OW39301   9.031   8.634   0.654
 9541SOL    HW139302   9.127   8.614   0.674
 9541SOL    HW239303   9.026   8.701   0.580
 9542SOL     OW39304   4.672   9.749   2.702
 9542SOL    HW139305   4.577   9.718   2.707
 9542SOL    HW239306   4.679   9.842   2.736
 9543SOL     OW39307   0.151   8.048   1.140
 9543SOL    HW139308   0.238   8.038   1.189
 9543SOL    HW239309   0.075   8.050   1.205
 9544SOL     OW39310   8.373   3.610   0.317
 9544SOL    HW139311   8.383   3.697   0.268
 9544SOL    HW239312   8.425   3.614   0.403
 9545SOL     OW39313   9.803   0.871   2.632
 9545SOL    HW139314   9.713   0.906   2.607
 9545SOL    HW239315   9.856   0.853   2.550
 9546SOL     OW39316   2.506   6.688   1.678
 9546SOL    HW139317   2.538   6.747   1.752
 9546SOL    HW239318   2.487   6.745   1.597
 9547SOL     OW39319   2.321   0.578   0.606
 9547SOL    HW139320   2.347   0.665   0.565
 9547SOL    HW239321   2.371   0.564   0.691
 9548SOL     OW39322   2.024   5.374   1.081
 9548SOL    HW139323   2.103   5.423   1.116
 9548SOL    HW239324   2.042   5.275   1.085
 9549SOL     OW39325   8.256   2.581   2.036
 9549SOL    HW139326   8.221   2.655   2.094
 9549SOL    HW239327   8.211   2.585   1.946
 9550SOL     OW39328   3.517   0.499   2.319
 9550SOL    HW139329   3.473   0.457   2.240
 9550SOL    HW239330   3.448   0.545   2.374
 9551SOL     OW39331   3.282   5.333   0.169
 9551SOL    HW139332   3.198   5.368   0.212
 9551SOL    HW239333   3.360   5.388   0.198
 9552SOL     OW39334   2.621   5.138   4.042
 9552SOL    HW139335   2.577   5.083   3.971
 9552SOL    HW239336   2.551   5.186   4.096
 9553SOL     OW39337   3.936   0.698   2.542
 9553SOL    HW139338   4.007   0.754   2.500
 9553SOL    HW239339   3.861   0.684   2.477
 9554SOL     OW39340   1.682   8.111   0.264
 9554SOL    HW139341   1.723   8.134   0.352
 9554SOL    HW239342   1.754   8.104   0.195
 9555SOL     OW39343   8.068   1.929   0.053
 9555SOL    HW139344   8.024   2.018   0.066
 9555SOL    HW239345   8.133   1.935   5.610
 9556SOL     OW39346   9.803   6.132   0.939
 9556SOL    HW139347   9.746   6.158   1.017
 9556SOL    HW239348   9.832   6.214   0.890
 9557SOL     OW39349   4.542   1.161   1.477
 9557SOL    HW139350   4.569   1.077   1.523
 9557SOL    HW239351   4.568   1.157   1.381
 9558SOL     OW39352   9.934   0.264   4.185
 9558SOL    HW139353   9.886   0.350   4.197
 9558SOL    HW239354   0.028   0.281   4.155
 9559SOL     OW39355   4.090   7.917   3.726
 9559SOL    HW139356   4.022   7.847   3.745
 9559SOL    HW239357   4.120   7.959   3.812
 9560SOL     OW39358   1.169   8.537   1.221
 9560SOL    HW139359   1.118   8.504   1.142
 9560SOL    HW239360   1.116   8.519   1.304
 9561SOL     OW39361   7.200   0.318   3.753
 9561SOL    HW139362   7.216   0.220   3.761
 9561SOL    HW239363   7.138   0.348   3.825
 9562SOL     OW39364   0.838   2.338   1.958
 9562SOL    HW139365   0.829   2.421   2.012
 9562SOL    HW239366   0.935   2.318   1.945
 9563SOL     OW39367   3.182   4.238   0.195
 9563SOL    HW139368   3.256   4.177   0.225
 9563SOL    HW239369   3.129   4.192   0.124
 9564SOL     OW39370   4.680   3.486   1.299
 9564SOL    HW139371   4.660   3.559   1.364
 9564SOL    HW239372   4.633   3.402   1.328
 9565SOL     OW39373   8.105   5.950   3.832
 9565SOL    HW139374   8.072   6.004   3.755
 9565SOL    HW239375   8.117   5.855   3.804
 9566SOL     OW39376   2.740   3.955   1.937
 9566SOL    HW139377   2.688   4.024   1.988
 9566SOL    HW239378   2.677   3.886   1.902
 9567SOL     OW39379   4.667   2.637   3.174
 9567SOL    HW139380   4.582   2.682   3.147
 9567SOL    HW239381   4.703   2.586   3.096
 9568SOL     OW39382   8.052   7.651   3.427
 9568SOL    HW139383   8.020   7.738   3.464
 9568SOL    HW239384   8.126   7.616   3.485
 9569SOL     OW39385   2.816   6.740   0.161
 9569SOL    HW139386   2.729   6.707   0.197
 9569SOL    HW239387   2.860   6.668   0.107
 9570SOL     OW39388   3.740   5.529   1.505
 9570SOL    HW139389   3.697   5.620   1.498
 9570SOL    HW239390   3.766   5.512   1.599
 9571SOL     OW39391   1.876   9.994   3.769
 9571SOL    HW139392   1.906   0.026   3.679
 9571SOL    HW239393   1.813   9.917   3.758
 9572SOL     OW39394   1.353   7.815   0.475
 9572SOL    HW139395   1.427   7.832   0.411
 9572SOL    HW239396   1.296   7.897   0.484
 9573SOL     OW39397   8.778   2.386   2.232
 9573SOL    HW139398   8.697   2.376   2.175
 9573SOL    HW239399   8.752   2.416   2.323
 9574SOL     OW39400   7.749   5.441   3.219
 9574SOL    HW139401   7.776   5.481   3.131
 9574SOL    HW239402   7.672   5.492   3.256
 9575SOL     OW39403   0.454   9.898   3.166
 9575SOL    HW139404   0.366   9.875   3.207
 9575SOL    HW239405   0.524   9.835   3.200
 9576SOL     OW39406   8.108   3.384   2.514
 9576SOL    HW139407   8.147   3.471   2.546
 9576SOL    HW239408   8.179   3.314   2.513
 9577SOL     OW39409   1.425   9.224   0.355
 9577SOL    HW139410   1.455   9.251   0.263
 9577SOL    HW239411   1.363   9.293   0.392
 9578SOL     OW39412   2.991   3.944   2.878
 9578SOL    HW139413   2.982   3.937   2.779
 9578SOL    HW239414   2.968   3.856   2.920
 9579SOL     OW39415   4.591   9.910   1.722
 9579SOL    HW139416   4.673   9.952   1.761
 9579SOL    HW239417   4.582   9.817   1.757
 9580SOL     OW39418   1.397   0.582   1.748
 9580SOL    HW139419   1.493   0.555   1.740
 9580SOL    HW239420   1.340   0.500   1.747
 9581SOL     OW39421   8.436   3.257   0.847
 9581SOL    HW139422   8.437   3.344   0.897
 9581SOL    HW239423   8.381   3.267   0.764
 9582SOL     OW39424   4.241   9.138   4.129
 9582SOL    HW139425   4.232   9.231   4.165
 9582SOL    HW239426   4.211   9.137   4.033
 9583SOL     OW39427   4.305   3.077   3.869
 9583SOL    HW139428   4.305   3.169   3.908
 9583SOL    HW239429   4.212   3.040   3.869
 9584SOL     OW39430   4.294   7.349   4.002
 9584SOL    HW139431   4.208   7.331   4.050
 9584SOL    HW239432   4.370   7.347   4.068
 9585SOL     OW39433   3.250   3.278   1.211
 9585SOL    HW139434   3.200   3.298   1.296
 9585SOL    HW239435   3.344   3.310   1.220
 9586SOL     OW39436   0.951   0.744   3.929
 9586SOL    HW139437   1.048   0.718   3.927
 9586SOL    HW239438   0.943   0.842   3.944
 9587SOL     OW39439   4.803   3.819   2.282
 9587SOL    HW139440   4.712   3.824   2.321
 9587SOL    HW239441   4.842   3.911   2.273
 9588SOL     OW39442   9.277   7.081   4.279
 9588SOL    HW139443   9.352   7.077   4.212
 9588SOL    HW239444   9.236   6.991   4.289
 9589SOL     OW39445   9.628   3.617   1.930
 9589SOL    HW139446   9.674   3.543   1.980
 9589SOL    HW239447   9.566   3.666   1.992
 9590SOL     OW39448   5.460   0.625   3.876
 9590SOL    HW139449   5.552   0.587   3.867
 9590SOL    HW239450   5.466   0.724   3.888
 9591SOL     OW39451   0.506   9.574   3.885
 9591SOL    HW139452   0.568   9.500   3.910
 9591SOL    HW239453   0.553   9.641   3.828
 9592SOL     OW39454   3.721   4.823   3.906
 9592SOL    HW139455   3.718   4.748   3.972
 9592SOL    HW239456   3.700   4.787   3.815
 9593SOL     OW39457   8.194   8.749   0.266
 9593SOL    HW139458   8.116   8.721   0.210
 9593SOL    HW239459   8.172   8.834   0.314
 9594SOL     OW39460   1.440   5.257   2.534
 9594SOL    HW139461   1.495   5.258   2.451
 9594SOL    HW239462   1.417   5.352   2.560
 9595SOL     OW39463   9.348   8.231   1.175
 9595SOL    HW139464   9.424   8.194   1.229
 9595SOL    HW239465   9.333   8.327   1.201
 9596SOL     OW39466   0.769   0.283   1.227
 9596SOL    HW139467   0.750   0.193   1.189
 9596SOL    HW239468   0.693   0.311   1.286
 9597SOL     OW39469   9.807   4.329   0.757
 9597SOL    HW139470   9.887   4.325   0.697
 9597SOL    HW239471   9.729   4.364   0.706
 9598SOL     OW39472   1.937   4.296   3.896
 9598SOL    HW139473   1.890   4.257   3.817
 9598SOL    HW239474   1.891   4.380   3.923
 9599SOL     OW39475   0.051   0.633   0.526
 9599SOL    HW139476   0.028   0.679   0.440
 9599SOL    HW239477   0.118   0.561   0.509
 9600SOL     OW39478   7.768   2.547   0.739
 9600SOL    HW139479   7.799   2.599   0.659
 9600SOL    HW239480   7.832   2.561   0.815
 9601SOL     OW39481   9.326   2.261   3.766
 9601SOL    HW139482   9.260   2.255   3.691
 9601SOL    HW239483   9.405   2.316   3.737
 9602SOL     OW39484   7.597   2.927   2.088
 9602SOL    HW139485   7.543   2.874   2.022
 9602SOL    HW239486   7.599   3.023   2.059
 9603SOL     OW39487   3.486   3.779   3.216
 9603SOL    HW139488   3.446   3.807   3.128
 9603SOL    HW239489   3.417   3.732   3.271
 9604SOL     OW39490   1.430   3.528   0.568
 9604SOL    HW139491   1.407   3.608   0.512
 9604SOL    HW239492   1.408   3.445   0.518
 9605SOL     OW39493   8.138   8.549   0.919
 9605SOL    HW139494   8.133   8.457   0.880
 9605SOL    HW239495   8.124   8.617   0.848
 9606SOL     OW39496   2.909   3.495   0.419
 9606SOL    HW139497   2.898   3.396   0.410
 9606SOL    HW239498   2.833   3.541   0.374
 9607SOL     OW39499   8.620   9.701   0.471
 9607SOL    HW139500   8.624   9.765   0.547
 9607SOL    HW239501   8.525   9.680   0.449
 9608SOL     OW39502   7.757   9.603   0.573
 9608SOL    HW139503   7.742   9.700   0.552
 9608SOL    HW239504   7.815   9.595   0.654
 9609SOL     OW39505   1.652   6.151   0.547
 9609SOL    HW139506   1.677   6.077   0.610
 9609SOL    HW239507   1.573   6.201   0.583
 9610SOL     OW39508   1.610   1.923   2.468
 9610SOL    HW139509   1.637   2.012   2.504
 9610SOL    HW239510   1.678   1.854   2.492
 9611SOL     OW39511   0.126   9.415   1.757
 9611SOL    HW139512   0.062   9.466   1.814
 9611SOL    HW239513   0.187   9.479   1.710
 9612SOL     OW39514   2.255   1.691   3.363
 9612SOL    HW139515   2.265   1.605   3.412
 9612SOL    HW239516   2.166   1.693   3.316
 9613SOL     OW39517   0.901   8.092   0.146
 9613SOL    HW139518   0.855   8.015   0.102
 9613SOL    HW239519   0.848   8.175   0.131
 9614SOL     OW39520   1.543   5.764   3.108
 9614SOL    HW139521   1.539   5.693   3.178
 9614SOL    HW239522   1.515   5.852   3.147
 9615SOL     OW39523   5.354   7.886   1.521
 9615SOL    HW139524   5.427   7.819   1.534
 9615SOL    HW239525   5.278   7.865   1.581
 9616SOL     OW39526   0.132   4.484   3.833
 9616SOL    HW139527   0.210   4.489   3.771
 9616SOL    HW239528   0.087   4.574   3.838
 9617SOL     OW39529   9.605   1.381   3.089
 9617SOL    HW139530   9.678   1.373   3.157
 9617SOL    HW239531   9.638   1.430   3.009
 9618SOL     OW39532   8.136   1.386   1.457
 9618SOL    HW139533   8.089   1.375   1.544
 9618SOL    HW239534   8.070   1.385   1.382
 9619SOL     OW39535   3.404   4.588   2.404
 9619SOL    HW139536   3.422   4.570   2.307
 9619SOL    HW239537   3.411   4.686   2.422
 9620SOL     OW39538   3.973   2.687   1.680
 9620SOL    HW139539   3.943   2.593   1.667
 9620SOL    HW239540   4.009   2.699   1.772
 9621SOL     OW39541   0.448   5.498   4.144
 9621SOL    HW139542   0.361   5.489   4.194
 9621SOL    HW239543   0.441   5.575   4.081
 9622SOL     OW39544   2.736   6.600   4.297
 9622SOL    HW139545   2.803   6.633   4.364
 9622SOL    HW239546   2.784   6.566   4.217
 9623SOL     OW39547   3.627   6.258   3.925
 9623SOL    HW139548   3.578   6.217   3.848
 9623SOL    HW239549   3.658   6.349   3.900
 9624SOL     OW39550   9.673   1.229   3.673
 9624SOL    HW139551   9.755   1.281   3.695
 9624SOL    HW239552   9.688   1.133   3.699
 9625SOL     OW39553   3.021   5.937   0.689
 9625SOL    HW139554   2.982   5.928   0.781
 9625SOL    HW239555   2.949   5.926   0.621
 9626SOL     OW39556   3.537   4.394   3.120
 9626SOL    HW139557   3.477   4.342   3.059
 9626SOL    HW239558   3.559   4.338   3.200
 9627SOL     OW39559   9.815   8.696   2.001
 9627SOL    HW139560   9.829   8.623   2.067
 9627SOL    HW239561   9.790   8.780   2.050
 9628SOL     OW39562   0.098   2.224   1.005
 9628SOL    HW139563   0.177   2.164   1.016
 9628SOL    HW239564   0.077   2.233   0.907
 9629SOL     OW39565   6.850   0.523   1.578
 9629SOL    HW139566   6.913   0.483   1.512
 9629SOL    HW239567   6.756   0.512   1.545
 9630SOL     OW39568   3.235   1.880   0.184
 9630SOL    HW139569   3.218   1.885   0.282
 9630SOL    HW239570   3.158   1.921   0.135
 9631SOL     OW39571   7.969   7.490   2.345
 9631SOL    HW139572   7.932   7.436   2.269
 9631SOL    HW239573   8.051   7.444   2.380
 9632SOL     OW39574   4.243   0.473   2.432
 9632SOL    HW139575   4.208   0.521   2.513
 9632SOL    HW239576   4.205   0.514   2.349
 9633SOL     OW39577   4.218   8.633   1.714
 9633SOL    HW139578   4.128   8.592   1.734
 9633SOL    HW239579   4.212   8.684   1.629
 9634SOL     OW39580   8.290   4.952   0.687
 9634SOL    HW139581   8.268   4.877   0.749
 9634SOL    HW239582   8.242   4.939   0.601
 9635SOL     OW39583   6.773   8.927   2.604
 9635SOL    HW139584   6.789   8.982   2.686
 9635SOL    HW239585   6.701   8.860   2.622
 9636SOL     OW39586   4.146   9.906   4.108
 9636SOL    HW139587   4.088   9.833   4.143
 9636SOL    HW239588   4.135   9.912   4.008
 9637SOL     OW39589   2.760   3.782   3.775
 9637SOL    HW139590   2.668   3.744   3.782
 9637SOL    HW239591   2.826   3.708   3.767
 9638SOL     OW39592   2.120   4.051   4.106
 9638SOL    HW139593   2.139   4.132   4.050
 9638SOL    HW239594   2.166   4.060   4.195
 9639SOL     OW39595   8.102   7.230   1.323
 9639SOL    HW139596   8.104   7.145   1.376
 9639SOL    HW239597   8.018   7.280   1.344
 9640SOL     OW39598   3.116   3.391   3.838
 9640SOL    HW139599   3.164   3.307   3.812
 9640SOL    HW239600   3.021   3.368   3.863
 9641SOL     OW39601   8.403   6.953   2.275
 9641SOL    HW139602   8.470   6.887   2.242
 9641SOL    HW239603   8.357   6.916   2.356
 9642SOL     OW39604   0.901   8.517   4.252
 9642SOL    HW139605   0.812   8.549   4.220
 9642SOL    HW239606   0.933   8.576   4.326
 9643SOL     OW39607   3.809   6.641   2.853
 9643SOL    HW139608   3.884   6.705   2.872
 9643SOL    HW239609   3.813   6.612   2.757
 9644SOL     OW39610   0.644   4.693   2.053
 9644SOL    HW139611   0.635   4.776   1.998
 9644SOL    HW239612   0.610   4.711   2.145
 9645SOL     OW39613   2.386   4.530   4.241
 9645SOL    HW139614   2.425   4.621   4.229
 9645SOL    HW239615   2.315   4.532   4.311
 9646SOL     OW39616   8.235   7.755   2.210
 9646SOL    HW139617   8.245   7.720   2.303
 9646SOL    HW239618   8.155   7.816   2.206
 9647SOL     OW39619   2.897   6.239   1.881
 9647SOL    HW139620   2.890   6.230   1.980
 9647SOL    HW239621   2.833   6.177   1.837
 9648SOL     OW39622   7.208   0.437   3.506
 9648SOL    HW139623   7.187   0.392   3.593
 9648SOL    HW239624   7.273   0.380   3.455
 9649SOL     OW39625   4.928   0.059   4.150
 9649SOL    HW139626   5.015   0.030   4.110
 9649SOL    HW239627   4.875   0.108   4.080
 9650SOL     OW39628   1.085   6.198   3.745
 9650SOL    HW139629   1.070   6.297   3.736
 9650SOL    HW239630   1.042   6.165   3.829
 9651SOL     OW39631   4.016   3.888   1.212
 9651SOL    HW139632   3.944   3.824   1.184
 9651SOL    HW239633   4.046   3.941   1.133
 9652SOL     OW39634   3.881   8.127   1.120
 9652SOL    HW139635   3.905   8.224   1.130
 9652SOL    HW239636   3.955   8.070   1.155
 9653SOL     OW39637   9.011   1.587   0.876
 9653SOL    HW139638   9.028   1.675   0.833
 9653SOL    HW239639   8.964   1.527   0.811
 9654SOL     OW39640   8.831   4.743   2.848
 9654SOL    HW139641   8.812   4.803   2.771
 9654SOL    HW239642   8.800   4.650   2.828
 9655SOL     OW39643   2.866   2.578   2.550
 9655SOL    HW139644   2.861   2.611   2.455
 9655SOL    HW239645   2.961   2.557   2.572
 9656SOL     OW39646   7.281   8.967   3.438
 9656SOL    HW139647   7.295   8.916   3.522
 9656SOL    HW239648   7.275   9.065   3.459
 9657SOL     OW39649   7.348   7.024   3.405
 9657SOL    HW139650   7.440   6.995   3.432
 9657SOL    HW239651   7.332   7.000   3.310
 9658SOL     OW39652   5.855   8.375   3.619
 9658SOL    HW139653   5.757   8.378   3.601
 9658SOL    HW239654   5.893   8.467   3.610
 9659SOL     OW39655   9.178   8.000   2.396
 9659SOL    HW139656   9.191   7.983   2.298
 9659SOL    HW239657   9.258   7.969   2.447
 9660SOL     OW39658   9.529   1.187   2.439
 9660SOL    HW139659   9.542   1.095   2.475
 9660SOL    HW239660   9.546   1.188   2.341
 9661SOL     OW39661   7.028   7.234   2.528
 9661SOL    HW139662   6.932   7.230   2.498
 9661SOL    HW239663   7.071   7.145   2.510
 9662SOL     OW39664   9.082   1.333   2.690
 9662SOL    HW139665   9.006   1.350   2.628
 9662SOL    HW239666   9.168   1.334   2.639
 9663SOL     OW39667   7.038   0.920   2.071
 9663SOL    HW139668   7.121   0.958   2.112
 9663SOL    HW239669   6.998   0.853   2.133
 9664SOL     OW39670   3.957   9.881   1.638
 9664SOL    HW139671   3.891   9.943   1.680
 9664SOL    HW239672   3.910   9.802   1.600
 9665SOL     OW39673   8.010   5.358   0.785
 9665SOL    HW139674   8.094   5.303   0.779
 9665SOL    HW239675   8.001   5.413   0.703
 9666SOL     OW39676   2.990   5.814   1.684
 9666SOL    HW139677   2.923   5.879   1.649
 9666SOL    HW239678   3.065   5.805   1.619
 9667SOL     OW39679   3.572   9.955   3.591
 9667SOL    HW139680   3.502   9.957   3.662
 9667SOL    HW239681   3.561   0.033   3.530
 9668SOL     OW39682   2.371   2.942   2.422
 9668SOL    HW139683   2.344   2.899   2.508
 9668SOL    HW239684   2.300   3.006   2.393
 9669SOL     OW39685   2.162   7.849   1.024
 9669SOL    HW139686   2.229   7.795   0.973
 9669SOL    HW239687   2.097   7.890   0.960
 9670SOL     OW39688   6.687   0.329   3.819
 9670SOL    HW139689   6.595   0.298   3.841
 9670SOL    HW239690   6.743   0.329   3.903
 9671SOL     OW39691   0.711   6.388   2.754
 9671SOL    HW139692   0.619   6.350   2.754
 9671SOL    HW239693   0.757   6.361   2.669
 9672SOL     OW39694   9.076   5.438   3.258
 9672SOL    HW139695   9.029   5.465   3.342
 9672SOL    HW239696   9.101   5.520   3.205
 9673SOL     OW39697   8.470   0.649   4.267
 9673SOL    HW139698   8.492   0.743   4.292
 9673SOL    HW239699   8.380   0.625   4.302
 9674SOL     OW39700   8.220   2.266   3.678
 9674SOL    HW139701   8.293   2.253   3.745
 9674SOL    HW239702   8.133   2.281   3.726
 9675SOL     OW39703   1.969   2.645   1.836
 9675SOL    HW139704   1.883   2.665   1.791
 9675SOL    HW239705   2.028   2.726   1.832
 9676SOL     OW39706   3.824   3.784   0.036
 9676SOL    HW139707   3.847   3.818   5.578
 9676SOL    HW239708   3.881   3.705   0.057
 9677SOL     OW39709   2.577   8.976   2.493
 9677SOL    HW139710   2.595   8.897   2.552
 9677SOL    HW239711   2.484   8.969   2.455
 9678SOL     OW39712   3.966   7.890   1.954
 9678SOL    HW139713   3.928   7.824   1.890
 9678SOL    HW239714   4.024   7.844   2.021
 9679SOL     OW39715   3.061   4.570   1.076
 9679SOL    HW139716   3.145   4.582   1.129
 9679SOL    HW239717   3.043   4.473   1.063
 9680SOL     OW39718   3.873   9.386   0.831
 9680SOL    HW139719   3.955   9.385   0.889
 9680SOL    HW239720   3.860   9.478   0.794
 9681SOL     OW39721   7.471   9.966   3.487
 9681SOL    HW139722   7.493   0.054   3.530
 9681SOL    HW239723   7.543   9.942   3.422
 9682SOL     OW39724   8.635   7.857   4.076
 9682SOL    HW139725   8.580   7.941   4.076
 9682SOL    HW239726   8.600   7.794   4.144
 9683SOL     OW39727   8.854   7.194   3.861
 9683SOL    HW139728   8.914   7.196   3.781
 9683SOL    HW239729   8.903   7.153   3.939
 9684SOL     OW39730   8.817   6.828   0.691
 9684SOL    HW139731   8.734   6.879   0.714
 9684SOL    HW239732   8.842   6.770   0.768
 9685SOL     OW39733   3.270   0.308   0.451
 9685SOL    HW139734   3.346   0.326   0.389
 9685SOL    HW239735   3.212   0.389   0.457
 9686SOL     OW39736   7.434   7.808   2.463
 9686SOL    HW139737   7.405   7.800   2.367
 9686SOL    HW239738   7.396   7.892   2.502
 9687SOL     OW39739   1.599   6.989   0.158
 9687SOL    HW139740   1.575   7.036   0.073
 9687SOL    HW239741   1.695   7.005   0.179
 9688SOL     OW39742   1.650   2.098   0.754
 9688SOL    HW139743   1.553   2.115   0.769
 9688SOL    HW239744   1.698   2.093   0.842
 9689SOL     OW39745   1.850   7.948   4.193
 9689SOL    HW139746   1.792   7.869   4.213
 9689SOL    HW239747   1.848   8.011   4.270
 9690SOL     OW39748   9.064   7.192   3.321
 9690SOL    HW139749   9.127   7.229   3.389
 9690SOL    HW239750   9.074   7.242   3.235
 9691SOL     OW39751   1.300   9.629   0.916
 9691SOL    HW139752   1.384   9.645   0.967
 9691SOL    HW239753   1.271   9.713   0.871
 9692SOL     OW39754   4.479   0.030   0.270
 9692SOL    HW139755   4.468   9.958   0.201
 9692SOL    HW239756   4.506   9.988   0.357
 9693SOL     OW39757   4.301   9.230   3.640
 9693SOL    HW139758   4.257   9.215   3.729
 9693SOL    HW239759   4.384   9.175   3.634
 9694SOL     OW39760   0.094   2.611   3.555
 9694SOL    HW139761   0.010   2.663   3.567
 9694SOL    HW239762   0.090   2.559   3.469
 9695SOL     OW39763   5.926   8.031   2.292
 9695SOL    HW139764   5.880   8.053   2.206
 9695SOL    HW239765   5.961   7.938   2.288
 9696SOL     OW39766   3.402   9.501   0.218
 9696SOL    HW139767   3.327   9.564   0.238
 9696SOL    HW239768   3.482   9.553   0.188
 9697SOL     OW39769   8.861   8.241   3.224
 9697SOL    HW139770   8.911   8.312   3.173
 9697SOL    HW239771   8.895   8.238   3.318
 9698SOL     OW39772   9.896   4.695   3.214
 9698SOL    HW139773   9.894   4.600   3.245
 9698SOL    HW239774   9.807   4.721   3.178
 9699SOL     OW39775   0.998   0.492   0.460
 9699SOL    HW139776   0.965   0.398   0.473
 9699SOL    HW239777   1.092   0.499   0.493
 9700SOL     OW39778   9.404   8.696   4.203
 9700SOL    HW139779   9.351   8.775   4.174
 9700SOL    HW239780   9.347   8.614   4.197
 9701SOL     OW39781   4.340   7.624   2.910
 9701SOL    HW139782   4.309   7.703   2.963
 9701SOL    HW239783   4.378   7.555   2.973
 9702SOL     OW39784   4.189   6.817   2.495
 9702SOL    HW139785   4.092   6.825   2.473
 9702SOL    HW239786   4.221   6.725   2.473
 9703SOL     OW39787   2.372   6.330   1.712
 9703SOL    HW139788   2.276   6.358   1.722
 9703SOL    HW239789   2.383   6.284   1.624
 9704SOL     OW39790   2.274   7.093   3.812
 9704SOL    HW139791   2.337   7.120   3.739
 9704SOL    HW239792   2.190   7.148   3.806
 9705SOL     OW39793   3.704   6.892   1.222
 9705SOL    HW139794   3.625   6.830   1.218
 9705SOL    HW239795   3.695   6.961   1.150
 9706SOL     OW39796   9.530   7.901   0.858
 9706SOL    HW139797   9.596   7.828   0.843
 9706SOL    HW239798   9.497   7.936   0.770
 9707SOL     OW39799   5.286   9.748   2.950
 9707SOL    HW139800   5.309   9.828   3.005
 9707SOL    HW239801   5.190   9.724   2.964
 9708SOL     OW39802   9.217   2.409   3.232
 9708SOL    HW139803   9.210   2.310   3.216
 9708SOL    HW239804   9.125   2.447   3.246
 9709SOL     OW39805   8.362   9.404   1.700
 9709SOL    HW139806   8.266   9.410   1.675
 9709SOL    HW239807   8.411   9.351   1.631
 9710SOL     OW39808   2.652   7.037   1.526
 9710SOL    HW139809   2.581   6.969   1.506
 9710SOL    HW239810   2.727   7.026   1.461
 9711SOL     OW39811   0.648   5.820   1.173
 9711SOL    HW139812   0.697   5.761   1.110
 9711SOL    HW239813   0.668   5.792   1.267
 9712SOL     OW39814   0.748   5.902   1.664
 9712SOL    HW139815   0.662   5.920   1.713
 9712SOL    HW239816   0.823   5.898   1.730
 9713SOL     OW39817   2.779   7.616   1.298
 9713SOL    HW139818   2.866   7.583   1.335
 9713SOL    HW239819   2.780   7.716   1.293
 9714SOL     OW39820   1.152   0.469   1.361
 9714SOL    HW139821   1.108   0.547   1.406
 9714SOL    HW239822   1.242   0.496   1.328
 9715SOL     OW39823   8.433   5.128   2.633
 9715SOL    HW139824   8.376   5.086   2.703
 9715SOL    HW239825   8.492   5.197   2.674
 9716SOL     OW39826   0.794   8.640   0.962
 9716SOL    HW139827   0.826   8.641   0.867
 9716SOL    HW239828   0.723   8.570   0.973
 9717SOL     OW39829   9.226   6.986   2.439
 9717SOL    HW139830   9.258   6.974   2.345
 9717SOL    HW239831   9.150   6.923   2.457
 9718SOL     OW39832   0.648   3.381   1.805
 9718SOL    HW139833   0.651   3.286   1.837
 9718SOL    HW239834   0.712   3.392   1.729
 9719SOL     OW39835   9.668   3.254   4.370
 9719SOL    HW139836   9.726   3.254   4.452
 9719SOL    HW239837   9.726   3.244   4.289
 9720SOL     OW39838   0.823   5.701   3.271
 9720SOL    HW139839   0.726   5.700   3.245
 9720SOL    HW239840   0.872   5.630   3.221
 9721SOL     OW39841   8.648   7.600   0.590
 9721SOL    HW139842   8.639   7.512   0.636
 9721SOL    HW239843   8.581   7.607   0.517
 9722SOL     OW39844   2.827   8.337   4.375
 9722SOL    HW139845   2.900   8.348   4.308
 9722SOL    HW239846   2.858   8.369   4.465
 9723SOL     OW39847   7.270   1.519   1.927
 9723SOL    HW139848   7.268   1.530   1.828
 9723SOL    HW239849   7.193   1.569   1.967
 9724SOL     OW39850   1.163   4.160   1.715
 9724SOL    HW139851   1.235   4.164   1.646
 9724SOL    HW239852   1.081   4.120   1.674
 9725SOL     OW39853   3.385   8.794   4.273
 9725SOL    HW139854   3.346   8.707   4.246
 9725SOL    HW239855   3.475   8.805   4.232
 9726SOL     OW39856   5.683   1.008   4.108
 9726SOL    HW139857   5.724   1.094   4.078
 9726SOL    HW239858   5.747   0.960   4.167
 9727SOL     OW39859   0.961   7.787   0.233
 9727SOL    HW139860   0.896   7.811   0.306
 9727SOL    HW239861   1.029   7.859   0.225
 9728SOL     OW39862   1.203   7.211   2.799
 9728SOL    HW139863   1.132   7.142   2.784
 9728SOL    HW239864   1.200   7.241   2.894
 9729SOL     OW39865   2.431   3.571   0.582
 9729SOL    HW139866   2.443   3.619   0.495
 9729SOL    HW239867   2.509   3.590   0.642
 9730SOL     OW39868   5.155   0.876   2.279
 9730SOL    HW139869   5.237   0.922   2.245
 9730SOL    HW239870   5.180   0.814   2.353
 9731SOL     OW39871   9.843   3.769   2.583
 9731SOL    HW139872   9.820   3.733   2.492
 9731SOL    HW239873   9.904   3.705   2.630
 9732SOL     OW39874   2.405   1.144   0.247
 9732SOL    HW139875   2.349   1.067   0.215
 9732SOL    HW239876   2.440   1.124   0.338
 9733SOL     OW39877   0.434   7.539   0.845
 9733SOL    HW139878   0.393   7.529   0.754
 9733SOL    HW239879   0.435   7.635   0.871
 9734SOL     OW39880   1.584   2.669   0.691
 9734SOL    HW139881   1.516   2.605   0.655
 9734SOL    HW239882   1.540   2.732   0.754
 9735SOL     OW39883   0.305   4.988   0.459
 9735SOL    HW139884   0.213   5.022   0.438
 9735SOL    HW239885   0.313   4.894   0.426
 9736SOL     OW39886   3.646   9.659   0.987
 9736SOL    HW139887   3.684   9.713   0.912
 9736SOL    HW239888   3.720   9.618   1.040
 9737SOL     OW39889   9.557   3.713   4.325
 9737SOL    HW139890   9.547   3.633   4.385
 9737SOL    HW239891   9.642   3.760   4.346
 9738SOL     OW39892   4.267   6.245   1.170
 9738SOL    HW139893   4.235   6.171   1.229
 9738SOL    HW239894   4.205   6.324   1.178
 9739SOL     OW39895   8.480   9.590   2.437
 9739SOL    HW139896   8.468   9.661   2.507
 9739SOL    HW239897   8.394   9.577   2.389
 9740SOL     OW39898   6.587   0.710   4.144
 9740SOL    HW139899   6.527   0.772   4.092
 9740SOL    HW239900   6.650   0.765   4.200
 9741SOL     OW39901   2.574   7.759   1.129
 9741SOL    HW139902   2.563   7.671   1.176
 9741SOL    HW239903   2.622   7.823   1.189
 9742SOL     OW39904   1.893   2.330   0.959
 9742SOL    HW139905   1.854   2.239   0.948
 9742SOL    HW239906   1.868   2.387   0.881
 9743SOL     OW39907   8.431   2.966   1.192
 9743SOL    HW139908   8.520   3.010   1.196
 9743SOL    HW239909   8.390   2.979   1.102
 9744SOL     OW39910   2.857   9.469   1.205
 9744SOL    HW139911   2.913   9.543   1.169
 9744SOL    HW239912   2.902   9.428   1.284
 9745SOL     OW39913   9.912   2.564   0.892
 9745SOL    HW139914   9.896   2.560   0.991
 9745SOL    HW239915   9.872   2.484   0.848
 9746SOL     OW39916   3.983   8.923   1.997
 9746SOL    HW139917   4.067   8.886   2.037
 9746SOL    HW239918   3.939   8.854   1.940
 9747SOL     OW39919   4.936   9.062   1.699
 9747SOL    HW139920   4.978   9.050   1.789
 9747SOL    HW239921   4.899   8.974   1.668
 9748SOL     OW39922   2.652   1.803   3.197
 9748SOL    HW139923   2.556   1.813   3.169
 9748SOL    HW239924   2.712   1.826   3.120
 9749SOL     OW39925   1.181   7.511   4.180
 9749SOL    HW139926   1.253   7.451   4.146
 9749SOL    HW239927   1.211   7.606   4.172
 9750SOL     OW39928   4.218   7.778   4.115
 9750SOL    HW139929   4.161   7.783   4.197
 9750SOL    HW239930   4.193   7.853   4.053
 9751SOL     OW39931   9.318   4.124   3.758
 9751SOL    HW139932   9.231   4.114   3.806
 9751SOL    HW239933   9.392   4.134   3.824
 9752SOL     OW39934   3.975   7.568   1.189
 9752SOL    HW139935   3.905   7.537   1.124
 9752SOL    HW239936   4.022   7.489   1.228
 9753SOL     OW39937   9.347   1.808   4.238
 9753SOL    HW139938   9.259   1.798   4.192
 9753SOL    HW239939   9.384   1.899   4.219
 9754SOL     OW39940   0.522   6.979   1.511
 9754SOL    HW139941   0.485   7.013   1.597
 9754SOL    HW239942   0.622   6.981   1.514
 9755SOL     OW39943   3.932   2.464   1.958
 9755SOL    HW139944   3.910   2.436   1.865
 9755SOL    HW239945   3.980   2.552   1.956
 9756SOL     OW39946   3.305   7.304   4.256
 9756SOL    HW139947   3.362   7.372   4.211
 9756SOL    HW239948   3.245   7.260   4.188
 9757SOL     OW39949   4.312   0.242   0.233
 9757SOL    HW139950   4.363   0.324   0.209
 9757SOL    HW239951   4.376   0.167   0.249
 9758SOL     OW39952   9.121   1.577   0.218
 9758SOL    HW139953   9.089   1.670   0.200
 9758SOL    HW239954   9.047   1.524   0.259
 9759SOL     OW39955   1.387   5.667   0.200
 9759SOL    HW139956   1.461   5.654   0.134
 9759SOL    HW239957   1.339   5.580   0.213
 9760SOL     OW39958   4.907   9.065   3.507
 9760SOL    HW139959   4.921   8.969   3.529
 9760SOL    HW239960   4.987   9.118   3.537
 9761SOL     OW39961   8.239   0.204   3.494
 9761SOL    HW139962   8.333   0.179   3.470
 9761SOL    HW239963   8.216   0.165   3.583
 9762SOL     OW39964   3.904   8.801   3.674
 9762SOL    HW139965   3.963   8.782   3.752
 9762SOL    HW239966   3.857   8.717   3.647
 9763SOL     OW39967   0.316   0.990   3.166
 9763SOL    HW139968   0.385   1.060   3.147
 9763SOL    HW239969   0.270   1.012   3.253
 9764SOL     OW39970   0.799   0.880   1.683
 9764SOL    HW139971   0.723   0.908   1.624
 9764SOL    HW239972   0.799   0.935   1.766
 9765SOL     OW39973   9.934   2.107   2.985
 9765SOL    HW139974   9.936   2.043   3.062
 9765SOL    HW239975   0.005   2.176   2.997
 9766SOL     OW39976   3.507   7.905   1.443
 9766SOL    HW139977   3.497   7.978   1.510
 9766SOL    HW239978   3.603   7.900   1.414
 9767SOL     OW39979   1.970   9.914   1.733
 9767SOL    HW139980   2.014   9.857   1.663
 9767SOL    HW239981   1.906   9.977   1.688
 9768SOL     OW39982   9.787   7.528   3.566
 9768SOL    HW139983   9.847   7.459   3.608
 9768SOL    HW239984   9.781   7.510   3.467
 9769SOL     OW39985   9.112   6.370   1.220
 9769SOL    HW139986   9.094   6.405   1.312
 9769SOL    HW239987   9.050   6.414   1.155
 9770SOL     OW39988   7.719   2.303   3.744
 9770SOL    HW139989   7.711   2.233   3.815
 9770SOL    HW239990   7.673   2.272   3.661
 9771SOL     OW39991   9.272   1.032   4.122
 9771SOL    HW139992   9.313   1.114   4.083
 9771SOL    HW239993   9.172   1.036   4.111
 9772SOL     OW39994   2.656   8.579   3.683
 9772SOL    HW139995   2.681   8.620   3.595
 9772SOL    HW239996   2.727   8.600   3.750
 9773SOL     OW39997   9.739   4.103   4.272
 9773SOL    HW139998   9.648   4.095   4.231
 9773SOL    HW239999   9.749   4.195   4.311
 9774SOL     OW40000   8.586   9.978   4.111
 9774SOL    HW140001   8.583   9.918   4.192
 9774SOL    HW240002   8.543   9.931   4.034
 9775SOL     OW40003   1.855   2.424   1.655
 9775SOL    HW140004   1.816   2.515   1.637
 9775SOL    HW240005   1.952   2.433   1.677
 9776SOL     OW40006   4.336   0.712   3.228
 9776SOL    HW140007   4.335   0.796   3.281
 9776SOL    HW240008   4.376   0.638   3.283
 9777SOL     OW40009   5.907   0.789   2.369
 9777SOL    HW140010   5.961   0.735   2.433
 9777SOL    HW240011   5.835   0.838   2.418
 9778SOL     OW40012   2.764   6.120   2.354
 9778SOL    HW140013   2.788   6.080   2.266
 9778SOL    HW240014   2.717   6.207   2.339
 9779SOL     OW40015   9.553   5.185   3.966
 9779SOL    HW140016   9.488   5.125   3.919
 9779SOL    HW240017   9.620   5.129   4.016
 9780SOL     OW40018   2.582   3.117   2.467
 9780SOL    HW140019   2.545   3.209   2.458
 9780SOL    HW240020   2.509   3.050   2.451
 9781SOL     OW40021   2.101   5.181   2.826
 9781SOL    HW140022   2.155   5.188   2.909
 9781SOL    HW240023   2.006   5.204   2.847
 9782SOL     OW40024   9.903   3.901   0.166
 9782SOL    HW140025   9.816   3.878   0.209
 9782SOL    HW240026   9.916   4.001   0.169
 9783SOL     OW40027   9.234   9.933   4.256
 9783SOL    HW140028   9.273   9.982   4.334
 9783SOL    HW240029   9.308   9.892   4.203
 9784SOL     OW40030   1.882   8.772   1.363
 9784SOL    HW140031   1.818   8.846   1.346
 9784SOL    HW240032   1.908   8.772   1.459
 9785SOL     OW40033   2.021   6.478   3.876
 9785SOL    HW140034   1.949   6.415   3.908
 9785SOL    HW240035   2.076   6.431   3.807
 9786SOL     OW40036   0.920   9.774   2.462
 9786SOL    HW140037   0.845   9.836   2.486
 9786SOL    HW240038   0.992   9.781   2.530
 9787SOL     OW40039   0.159   0.745   1.487
 9787SOL    HW140040   0.113   0.833   1.476
 9787SOL    HW240041   0.213   0.746   1.571
 9788SOL     OW40042   2.583   0.769   0.921
 9788SOL    HW140043   2.544   0.854   0.885
 9788SOL    HW240044   2.565   0.764   1.020
 9789SOL     OW40045   8.925   4.479   3.616
 9789SOL    HW140046   8.893   4.386   3.635
 9789SOL    HW240047   8.860   4.545   3.656
 9790SOL     OW40048   2.918   8.426   0.641
 9790SOL    HW140049   2.986   8.499   0.634
 9790SOL    HW240050   2.934   8.372   0.724
 9791SOL     OW40051   5.058   5.375   1.297
 9791SOL    HW140052   4.962   5.387   1.270
 9791SOL    HW240053   5.075   5.425   1.382
 9792SOL     OW40054   3.309   7.458   0.822
 9792SOL    HW140055   3.396   7.411   0.807
 9792SOL    HW240056   3.235   7.405   0.780
 9793SOL     OW40057   3.908   4.063   2.272
 9793SOL    HW140058   3.966   4.142   2.249
 9793SOL    HW240059   3.819   4.096   2.305
 9794SOL     OW40060   2.985   0.704   1.919
 9794SOL    HW140061   3.053   0.725   1.989
 9794SOL    HW240062   2.893   0.715   1.956
 9795SOL     OW40063   1.454   0.388   3.671
 9795SOL    HW140064   1.533   0.369   3.613
 9795SOL    HW240065   1.443   0.314   3.737
 9796SOL     OW40066   7.439   0.161   2.590
 9796SOL    HW140067   7.341   0.165   2.569
 9796SOL    HW240068   7.491   0.194   2.511
 9797SOL     OW40069   2.320   6.878   2.027
 9797SOL    HW140070   2.269   6.807   1.980
 9797SOL    HW240071   2.278   6.967   2.008
 9798SOL     OW40072   1.441   8.112   2.949
 9798SOL    HW140073   1.477   8.194   2.993
 9798SOL    HW240074   1.402   8.136   2.860
 9799SOL     OW40075   2.853   8.234   0.455
 9799SOL    HW140076   2.928   8.167   0.451
 9799SOL    HW240077   2.881   8.312   0.511
 9800SOL     OW40078   5.266   4.092   0.821
 9800SOL    HW140079   5.322   4.168   0.855
 9800SOL    HW240080   5.236   4.036   0.898
 9801SOL     OW40081   1.629   6.886   2.922
 9801SOL    HW140082   1.702   6.935   2.969
 9801SOL    HW240083   1.555   6.949   2.899
 9802SOL     OW40084   4.685   9.783   4.094
 9802SOL    HW140085   4.775   9.775   4.135
 9802SOL    HW240086   4.629   9.846   4.148
 9803SOL     OW40087   7.883   1.775   1.151
 9803SOL    HW140088   7.899   1.825   1.065
 9803SOL    HW240089   7.968   1.733   1.182
 9804SOL     OW40090   6.669   9.359   3.487
 9804SOL    HW140091   6.618   9.274   3.484
 9804SOL    HW240092   6.767   9.341   3.474
 9805SOL     OW40093   1.298   4.608   1.189
 9805SOL    HW140094   1.228   4.554   1.236
 9805SOL    HW240095   1.387   4.563   1.199
 9806SOL     OW40096   0.075   1.917   0.902
 9806SOL    HW140097   0.144   1.955   0.962
 9806SOL    HW240098   0.090   1.951   0.809
 9807SOL     OW40099   9.994   7.497   1.948
 9807SOL    HW140100   0.052   7.577   1.932
 9807SOL    HW240101   9.913   7.502   1.889
 9808SOL     OW40102   8.657   3.140   2.933
 9808SOL    HW140103   8.608   3.177   3.011
 9808SOL    HW240104   8.747   3.184   2.926
 9809SOL     OW40105   4.430   3.970   0.782
 9809SOL    HW140106   4.472   4.007   0.864
 9809SOL    HW240107   4.358   3.905   0.807
 9810SOL     OW40108   2.900   6.756   1.855
 9810SOL    HW140109   2.873   6.665   1.824
 9810SOL    HW240110   2.947   6.805   1.782
 9811SOL     OW40111   0.874   3.179   3.937
 9811SOL    HW140112   0.837   3.173   4.030
 9811SOL    HW240113   0.890   3.275   3.914
 9812SOL     OW40114   9.723   9.284   1.664
 9812SOL    HW140115   9.762   9.272   1.572
 9812SOL    HW240116   9.793   9.263   1.732
 9813SOL     OW40117   4.242   5.944   2.570
 9813SOL    HW140118   4.185   5.917   2.648
 9813SOL    HW240119   4.211   5.896   2.488
 9814SOL     OW40120   0.886   0.955   2.701
 9814SOL    HW140121   0.972   0.917   2.735
 9814SOL    HW240122   0.879   1.051   2.728
 9815SOL     OW40123   2.056   7.179   2.986
 9815SOL    HW140124   2.061   7.253   3.054
 9815SOL    HW240125   2.068   7.217   2.894
 9816SOL     OW40126   0.821   1.251   3.905
 9816SOL    HW140127   0.858   1.343   3.892
 9816SOL    HW240128   0.723   1.251   3.887
 9817SOL     OW40129   1.931   2.518   3.559
 9817SOL    HW140130   1.950   2.444   3.495
 9817SOL    HW240131   1.903   2.600   3.509
 9818SOL     OW40132   4.674   8.188   0.952
 9818SOL    HW140133   4.752   8.237   0.915
 9818SOL    HW240134   4.596   8.251   0.960
 9819SOL     OW40135   0.980   9.825   1.195
 9819SOL    HW140136   1.049   9.757   1.219
 9819SOL    HW240137   0.982   9.841   1.096
 9820SOL     OW40138   0.922   4.050   1.629
 9820SOL    HW140139   0.901   4.030   1.724
 9820SOL    HW240140   0.870   3.990   1.569
 9821SOL     OW40141   9.964   1.964   2.063
 9821SOL    HW140142   9.978   2.018   1.980
 9821SOL    HW240143   0.051   1.957   2.113
 9822SOL     OW40144   4.131   7.919   2.815
 9822SOL    HW140145   4.204   7.985   2.835
 9822SOL    HW240146   4.059   7.927   2.884
 9823SOL     OW40147   6.205   0.307   3.432
 9823SOL    HW140148   6.159   0.298   3.343
 9823SOL    HW240149   6.302   0.286   3.421
 9824SOL     OW40150   1.055   1.041   0.311
 9824SOL    HW140151   1.118   1.051   0.234
 9824SOL    HW240152   1.092   0.974   0.375
 9825SOL     OW40153   3.553   7.759   2.691
 9825SOL    HW140154   3.546   7.663   2.718
 9825SOL    HW240155   3.623   7.804   2.747
 9826SOL     OW40156   8.718   0.576   1.456
 9826SOL    HW140157   8.776   0.503   1.492
 9826SOL    HW240158   8.641   0.537   1.406
 9827SOL     OW40159   1.746   1.308   1.099
 9827SOL    HW140160   1.693   1.386   1.133
 9827SOL    HW240161   1.686   1.229   1.087
 9828SOL     OW40162   2.652   9.858   4.067
 9828SOL    HW140163   2.679   9.820   4.155
 9828SOL    HW240164   2.711   9.936   4.045
 9829SOL     OW40165   6.474   0.339   4.442
 9829SOL    HW140166   6.508   0.246   4.427
 9829SOL    HW240167   6.493   0.395   4.361
 9830SOL     OW40168   2.933   1.569   0.379
 9830SOL    HW140169   2.915   1.522   0.293
 9830SOL    HW240170   3.031   1.589   0.386
 9831SOL     OW40171   4.083   6.391   2.569
 9831SOL    HW140172   4.159   6.326   2.563
 9831SOL    HW240173   4.068   6.416   2.665
 9832SOL     OW40174   4.326   8.923   2.291
 9832SOL    HW140175   4.276   8.873   2.220
 9832SOL    HW240176   4.420   8.889   2.296
 9833SOL     OW40177   6.353   0.851   3.387
 9833SOL    HW140178   6.315   0.842   3.296
 9833SOL    HW240179   6.402   0.767   3.411
 9834SOL     OW40180   0.664   3.653   2.390
 9834SOL    HW140181   0.620   3.589   2.327
 9834SOL    HW240182   0.741   3.608   2.434
 9835SOL     OW40183   8.168   2.972   1.301
 9835SOL    HW140184   8.143   3.064   1.331
 9835SOL    HW240185   8.264   2.971   1.274
 9836SOL     OW40186   7.957   2.767   3.177
 9836SOL    HW140187   7.968   2.794   3.273
 9836SOL    HW240188   7.957   2.849   3.119
 9837SOL     OW40189   1.971   2.302   3.360
 9837SOL    HW140190   2.041   2.345   3.303
 9837SOL    HW240191   1.996   2.207   3.379
 9838SOL     OW40192   7.274   1.777   0.702
 9838SOL    HW140193   7.298   1.859   0.651
 9838SOL    HW240194   7.225   1.713   0.643
 9839SOL     OW40195   4.065   1.439   1.322
 9839SOL    HW140196   3.966   1.451   1.316
 9839SOL    HW240197   4.092   1.358   1.270
 9840SOL     OW40198   7.464   3.619   0.051
 9840SOL    HW140199   7.552   3.665   0.066
 9840SOL    HW240200   7.440   3.566   0.132
 9841SOL     OW40201   0.511   9.516   3.460
 9841SOL    HW140202   0.520   9.426   3.417
 9841SOL    HW240203   0.416   9.529   3.489
 9842SOL     OW40204   3.230   8.954   4.426
 9842SOL    HW140205   3.289   8.905   4.362
 9842SOL    HW240206   3.267   8.945   4.518
 9843SOL     OW40207   8.509   0.421   0.233
 9843SOL    HW140208   8.464   0.332   0.228
 9843SOL    HW240209   8.593   0.413   0.287
 9844SOL     OW40210   2.672   7.295   0.586
 9844SOL    HW140211   2.617   7.214   0.564
 9844SOL    HW240212   2.654   7.323   0.680
 9845SOL     OW40213   8.248   0.347   3.870
 9845SOL    HW140214   8.347   0.342   3.875
 9845SOL    HW240215   8.221   0.432   3.824
 9846SOL     OW40216   3.251   9.554   4.111
 9846SOL    HW140217   3.164   9.538   4.158
 9846SOL    HW240218   3.297   9.467   4.097
 9847SOL     OW40219   4.518   5.786   1.324
 9847SOL    HW140220   4.453   5.854   1.358
 9847SOL    HW240221   4.607   5.800   1.369
 9848SOL     OW40222   7.097   0.817   1.824
 9848SOL    HW140223   7.082   0.857   1.915
 9848SOL    HW240224   7.011   0.778   1.791
 9849SOL     OW40225   6.408   9.772   1.738
 9849SOL    HW140226   6.434   9.743   1.646
 9849SOL    HW240227   6.316   9.737   1.760
 9850SOL     OW40228   3.710   2.559   3.442
 9850SOL    HW140229   3.664   2.602   3.519
 9850SOL    HW240230   3.728   2.628   3.371
 9851SOL     OW40231   1.036   7.812   2.486
 9851SOL    HW140232   0.944   7.851   2.489
 9851SOL    HW240233   1.087   7.853   2.411
 9852SOL     OW40234   1.193   8.819   4.132
 9852SOL    HW140235   1.132   8.831   4.054
 9852SOL    HW240236   1.154   8.862   4.213
 9853SOL     OW40237   1.738   5.347   1.531
 9853SOL    HW140238   1.723   5.258   1.573
 9853SOL    HW240239   1.829   5.380   1.554
 9854SOL     OW40240   3.367   2.621   3.931
 9854SOL    HW140241   3.356   2.525   3.903
 9854SOL    HW240242   3.354   2.681   3.852
 9855SOL     OW40243   0.716   2.453   3.027
 9855SOL    HW140244   0.654   2.401   3.086
 9855SOL    HW240245   0.665   2.527   2.982
 9856SOL     OW40246   3.250   2.377   3.592
 9856SOL    HW140247   3.188   2.299   3.581
 9856SOL    HW240248   3.214   2.456   3.542
 9857SOL     OW40249   9.168   3.193   3.170
 9857SOL    HW140250   9.225   3.142   3.234
 9857SOL    HW240251   9.223   3.261   3.122
 9858SOL     OW40252   0.078   8.622   3.790
 9858SOL    HW140253   0.130   8.557   3.845
 9858SOL    HW240254   9.985   8.628   3.826
 9859SOL     OW40255   1.592   9.523   3.836
 9859SOL    HW140256   1.657   9.451   3.856
 9859SOL    HW240257   1.602   9.597   3.903
 9860SOL     OW40258   0.944   7.573   3.885
 9860SOL    HW140259   0.912   7.647   3.944
 9860SOL    HW240260   0.942   7.603   3.790
 9861SOL     OW40261   3.030   1.450   3.648
 9861SOL    HW140262   3.024   1.360   3.691
 9861SOL    HW240263   3.125   1.470   3.626
 9862SOL     OW40264   2.753   5.199   4.286
 9862SOL    HW140265   2.702   5.162   4.208
 9862SOL    HW240266   2.836   5.147   4.300
 9863SOL     OW40267   4.501   7.782   1.017
 9863SOL    HW140268   4.483   7.707   1.081
 9863SOL    HW240269   4.577   7.837   1.050
 9864SOL     OW40270   2.045   7.443   1.293
 9864SOL    HW140271   2.083   7.461   1.383
 9864SOL    HW240272   1.978   7.370   1.298
 9865SOL     OW40273   0.144   6.772   1.433
 9865SOL    HW140274   0.065   6.830   1.412
 9865SOL    HW240275   0.225   6.829   1.444
 9866SOL     OW40276   0.545   2.462   4.228
 9866SOL    HW140277   0.583   2.370   4.217
 9866SOL    HW240278   0.620   2.528   4.237
 9867SOL     OW40279   8.645   1.039   0.870
 9867SOL    HW140280   8.699   0.998   0.796
 9867SOL    HW240281   8.654   0.982   0.952
 9868SOL     OW40282   8.219   6.511   2.100
 9868SOL    HW140283   8.267   6.503   2.013
 9868SOL    HW240284   8.135   6.457   2.097
 9869SOL     OW40285   0.944   3.352   0.955
 9869SOL    HW140286   0.961   3.326   1.050
 9869SOL    HW240287   0.878   3.427   0.952
 9870SOL     OW40288   2.012   1.911   2.605
 9870SOL    HW140289   2.039   2.001   2.570
 9870SOL    HW240290   2.009   1.913   2.705
 9871SOL     OW40291   9.209   8.355   2.389
 9871SOL    HW140292   9.217   8.290   2.314
 9871SOL    HW240293   9.124   8.339   2.439
 9872SOL     OW40294   5.124   1.916   3.246
 9872SOL    HW140295   5.085   1.939   3.157
 9872SOL    HW240296   5.052   1.913   3.315
 9873SOL     OW40297   2.525   2.744   3.077
 9873SOL    HW140298   2.483   2.784   3.158
 9873SOL    HW240299   2.543   2.647   3.093
 9874SOL     OW40300   8.069   5.052   2.655
 9874SOL    HW140301   8.051   5.121   2.585
 9874SOL    HW240302   8.023   5.078   2.740
 9875SOL     OW40303   5.293   0.080   4.202
 9875SOL    HW140304   5.374   0.024   4.216
 9875SOL    HW240305   5.232   0.035   4.136
 9876SOL     OW40306   8.655   8.416   3.284
 9876SOL    HW140307   8.719   8.343   3.259
 9876SOL    HW240308   8.562   8.379   3.287
 9877SOL     OW40309   6.343   0.709   0.301
 9877SOL    HW140310   6.407   0.678   0.371
 9877SOL    HW240311   6.263   0.750   0.345
 9878SOL     OW40312   3.281   6.902   3.082
 9878SOL    HW140313   3.331   6.816   3.074
 9878SOL    HW240314   3.335   6.976   3.041
 9879SOL     OW40315   3.714   6.953   2.219
 9879SOL    HW140316   3.661   6.963   2.135
 9879SOL    HW240317   3.809   6.979   2.202
 9880SOL     OW40318   8.325   6.008   3.991
 9880SOL    HW140319   8.243   5.991   3.936
 9880SOL    HW240320   8.380   6.081   3.948
 9881SOL     OW40321   9.447   0.920   4.300
 9881SOL    HW140322   9.408   0.837   4.341
 9881SOL    HW240323   9.381   0.962   4.239
 9882SOL     OW40324   8.890   7.477   1.490
 9882SOL    HW140325   8.801   7.504   1.452
 9882SOL    HW240326   8.906   7.381   1.470
 9883SOL     OW40327   1.518   9.442   3.584
 9883SOL    HW140328   1.542   9.474   3.675
 9883SOL    HW240329   1.513   9.520   3.521
 9884SOL     OW40330   2.353   8.237   3.018
 9884SOL    HW140331   2.335   8.330   3.051
 9884SOL    HW240332   2.326   8.171   3.088
 9885SOL     OW40333   8.477   8.991   4.072
 9885SOL    HW140334   8.390   9.019   4.113
 9885SOL    HW240335   8.519   9.068   4.025
 9886SOL     OW40336   8.542   9.425   1.025
 9886SOL    HW140337   8.623   9.369   1.007
 9886SOL    HW240338   8.559   9.519   0.996
 9887SOL     OW40339   4.853   8.795   4.092
 9887SOL    HW140340   4.810   8.811   4.180
 9887SOL    HW240341   4.868   8.882   4.045
 9888SOL     OW40342   3.137   7.879   2.869
 9888SOL    HW140343   3.047   7.842   2.843
 9888SOL    HW240344   3.197   7.877   2.789
 9889SOL     OW40345   8.897   2.390   2.906
 9889SOL    HW140346   8.848   2.361   2.824
 9889SOL    HW240347   8.895   2.489   2.913
 9890SOL     OW40348   7.685   1.248   1.363
 9890SOL    HW140349   7.648   1.320   1.305
 9890SOL    HW240350   7.636   1.245   1.450
 9891SOL     OW40351   0.455   0.822   4.300
 9891SOL    HW140352   0.544   0.818   4.346
 9891SOL    HW240353   0.413   0.912   4.317
 9892SOL     OW40354   3.870   7.765   2.329
 9892SOL    HW140355   3.789   7.811   2.365
 9892SOL    HW240356   3.948   7.828   2.330
 9893SOL     OW40357   1.049   9.844   0.221
 9893SOL    HW140358   1.117   9.775   0.247
 9893SOL    HW240359   0.990   9.807   0.149
 9894SOL     OW40360   9.648   8.408   2.402
 9894SOL    HW140361   9.745   8.384   2.408
 9894SOL    HW240362   9.596   8.331   2.366
 9895SOL     OW40363   8.964   3.976   1.316
 9895SOL    HW140364   9.061   3.955   1.323
 9895SOL    HW240365   8.926   3.991   1.407
 9896SOL     OW40366   1.866   1.188   4.309
 9896SOL    HW140367   1.826   1.101   4.337
 9896SOL    HW240368   1.794   1.257   4.302
 9897SOL     OW40369   2.640   4.862   2.027
 9897SOL    HW140370   2.628   4.765   2.050
 9897SOL    HW240371   2.693   4.907   2.099
 9898SOL     OW40372   2.967   8.709   3.036
 9898SOL    HW140373   2.960   8.717   3.136
 9898SOL    HW240374   3.017   8.625   3.013
 9899SOL     OW40375   2.339   3.298   3.991
 9899SOL    HW140376   2.340   3.303   3.891
 9899SOL    HW240377   2.408   3.360   4.028
 9900SOL     OW40378   9.248   5.771   2.020
 9900SOL    HW140379   9.321   5.836   1.998
 9900SOL    HW240380   9.243   5.700   1.950
 9901SOL     OW40381   2.531   3.737   2.177
 9901SOL    HW140382   2.497   3.823   2.215
 9901SOL    HW240383   2.470   3.663   2.202
 9902SOL     OW40384   4.266   3.407   1.580
 9902SOL    HW140385   4.228   3.317   1.558
 9902SOL    HW240386   4.319   3.401   1.665
 9903SOL     OW40387   8.395   2.981   0.210
 9903SOL    HW140388   8.324   2.917   0.239
 9903SOL    HW240389   8.484   2.935   0.213
 9904SOL     OW40390   9.924   2.823   1.225
 9904SOL    HW140391   9.969   2.857   1.142
 9904SOL    HW240392   9.896   2.728   1.210
 9905SOL     OW40393   4.335   2.268   0.775
 9905SOL    HW140394   4.378   2.177   0.775
 9905SOL    HW240395   4.317   2.296   0.681
 9906SOL     OW40396   8.194   5.495   0.395
 9906SOL    HW140397   8.187   5.408   0.346
 9906SOL    HW240398   8.290   5.511   0.420
 9907SOL     OW40399   8.039   2.621   3.598
 9907SOL    HW140400   8.034   2.566   3.514
 9907SOL    HW240401   8.001   2.569   3.674
 9908SOL     OW40402   8.661   2.286   1.070
 9908SOL    HW140403   8.734   2.334   1.022
 9908SOL    HW240404   8.590   2.351   1.096
 9909SOL     OW40405   9.005   8.074   0.335
 9909SOL    HW140406   8.919   8.062   0.286
 9909SOL    HW240407   9.075   8.109   0.272
 9910SOL     OW40408   0.566   7.848   3.813
 9910SOL    HW140409   0.625   7.926   3.834
 9910SOL    HW240410   0.560   7.837   3.714
 9911SOL     OW40411   3.484   6.161   3.712
 9911SOL    HW140412   3.397   6.114   3.726
 9911SOL    HW240413   3.474   6.229   3.640
 9912SOL     OW40414   9.903   5.365   2.722
 9912SOL    HW140415   9.850   5.309   2.658
 9912SOL    HW240416   9.933   5.309   2.799
 9913SOL     OW40417   8.520   6.836   2.809
 9913SOL    HW140418   8.531   6.935   2.810
 9913SOL    HW240419   8.540   6.800   2.900
 9914SOL     OW40420   8.283   4.778   0.364
 9914SOL    HW140421   8.283   4.877   0.378
 9914SOL    HW240422   8.305   4.757   0.269
 9915SOL     OW40423   0.734   2.732   3.574
 9915SOL    HW140424   0.796   2.744   3.652
 9915SOL    HW240425   0.692   2.641   3.579
 9916SOL     OW40426   4.714   8.678   3.544
 9916SOL    HW140427   4.803   8.717   3.566
 9916SOL    HW240428   4.705   8.588   3.586
 9917SOL     OW40429   8.514   9.443   2.062
 9917SOL    HW140430   8.495   9.359   2.012
 9917SOL    HW240431   8.458   9.518   2.026
 9918SOL     OW40432   4.989   3.175   2.944
 9918SOL    HW140433   4.987   3.190   2.846
 9918SOL    HW240434   4.933   3.245   2.990
 9919SOL     OW40435   1.796   1.475   2.022
 9919SOL    HW140436   1.819   1.567   2.054
 9919SOL    HW240437   1.878   1.417   2.025
 9920SOL     OW40438   2.403   2.421   3.362
 9920SOL    HW140439   2.393   2.483   3.439
 9920SOL    HW240440   2.443   2.335   3.393
 9921SOL     OW40441   1.855   3.061   0.569
 9921SOL    HW140442   1.813   3.027   0.653
 9921SOL    HW240443   1.901   2.986   0.522
 9922SOL     OW40444   8.030   7.908   1.790
 9922SOL    HW140445   8.097   7.927   1.717
 9922SOL    HW240446   8.054   7.959   1.872
 9923SOL     OW40447   7.592   0.001   4.255
 9923SOL    HW140448   7.515   9.951   4.216
 9923SOL    HW240449   7.639   0.052   4.182
 9924SOL     OW40450   1.462   0.340   1.448
 9924SOL    HW140451   1.380   0.295   1.483
 9924SOL    HW240452   1.436   0.410   1.381
 9925SOL     OW40453   1.666   0.352   0.770
 9925SOL    HW140454   1.653   0.362   0.672
 9925SOL    HW240455   1.757   0.316   0.789
 9926SOL     OW40456   9.925   6.904   1.333
 9926SOL    HW140457   9.888   6.839   1.266
 9926SOL    HW240458   9.967   6.981   1.285
 9927SOL     OW40459   8.296   8.708   4.322
 9927SOL    HW140460   8.394   8.718   4.341
 9927SOL    HW240461   8.283   8.681   4.227
 9928SOL     OW40462   4.346   7.354   2.037
 9928SOL    HW140463   4.381   7.396   2.121
 9928SOL    HW240464   4.406   7.377   1.961
 9929SOL     OW40465   9.181   0.820   2.725
 9929SOL    HW140466   9.183   0.904   2.671
 9929SOL    HW240467   9.196   0.841   2.821
 9930SOL     OW40468   4.934   1.437   1.530
 9930SOL    HW140469   4.933   1.346   1.572
 9930SOL    HW240470   5.027   1.474   1.534
 9931SOL     OW40471   0.795   3.593   4.288
 9931SOL    HW140472   0.888   3.609   4.322
 9931SOL    HW240473   0.738   3.672   4.310
 9932SOL     OW40474   1.696   8.425   3.472
 9932SOL    HW140475   1.690   8.353   3.403
 9932SOL    HW240476   1.605   8.460   3.491
 9933SOL     OW40477   6.643   9.344   2.654
 9933SOL    HW140478   6.628   9.436   2.690
 9933SOL    HW240479   6.737   9.337   2.619
 9934SOL     OW40480   3.036   9.318   2.655
 9934SOL    HW140481   3.012   9.222   2.648
 9934SOL    HW240482   2.954   9.373   2.672
 9935SOL     OW40483   1.222   1.270   0.671
 9935SOL    HW140484   1.178   1.353   0.706
 9935SOL    HW240485   1.162   1.192   0.687
 9936SOL     OW40486   9.902   3.383   3.705
 9936SOL    HW140487   9.844   3.346   3.778
 9936SOL    HW240488   9.988   3.332   3.701
 9937SOL     OW40489   1.718   9.507   2.817
 9937SOL    HW140490   1.747   9.505   2.913
 9937SOL    HW240491   1.737   9.598   2.779
 9938SOL     OW40492   2.071   0.290   2.741
 9938SOL    HW140493   2.082   0.252   2.833
 9938SOL    HW240494   1.976   0.318   2.727
 9939SOL     OW40495   2.704   0.660   1.645
 9939SOL    HW140496   2.665   0.617   1.727
 9939SOL    HW240497   2.802   0.644   1.642
 9940SOL     OW40498   4.699   1.371   2.851
 9940SOL    HW140499   4.682   1.415   2.763
 9940SOL    HW240500   4.755   1.431   2.908
 9941SOL     OW40501   4.807   7.555   3.724
 9941SOL    HW140502   4.761   7.640   3.748
 9941SOL    HW240503   4.906   7.565   3.737
 9942SOL     OW40504   8.278   4.928   3.131
 9942SOL    HW140505   8.197   4.984   3.151
 9942SOL    HW240506   8.350   4.949   3.197
 9943SOL     OW40507   5.711   1.428   3.820
 9943SOL    HW140508   5.667   1.428   3.730
 9943SOL    HW240509   5.798   1.476   3.815
 9944SOL     OW40510   3.553   2.420   2.649
 9944SOL    HW140511   3.556   2.329   2.690
 9944SOL    HW240512   3.592   2.416   2.557
 9945SOL     OW40513   9.330   3.070   3.350
 9945SOL    HW140514   9.426   3.075   3.325
 9945SOL    HW240515   9.306   2.976   3.374
 9946SOL     OW40516   3.016   0.670   3.560
 9946SOL    HW140517   3.101   0.633   3.523
 9946SOL    HW240518   3.036   0.733   3.634
 9947SOL     OW40519   0.689   4.054   4.297
 9947SOL    HW140520   0.634   3.972   4.279
 9947SOL    HW240521   0.747   4.074   4.218
 9948SOL     OW40522   0.911   1.764   2.120
 9948SOL    HW140523   0.903   1.863   2.126
 9948SOL    HW240524   0.967   1.740   2.040
 9949SOL     OW40525   3.560   0.879   4.370
 9949SOL    HW140526   3.575   0.909   4.464
 9949SOL    HW240527   3.555   0.958   4.309
 9950SOL     OW40528   0.351   7.305   4.365
 9950SOL    HW140529   0.311   7.397   4.369
 9950SOL    HW240530   0.383   7.287   4.271
 9951SOL     OW40531   6.753   0.923   0.349
 9951SOL    HW140532   6.657   0.952   0.348
 9951SOL    HW240533   6.776   0.882   0.261
 9952SOL     OW40534   9.544   1.529   0.219
 9952SOL    HW140535   9.478   1.497   0.151
 9952SOL    HW240536   9.519   1.621   0.248
 9953SOL     OW40537   3.351   3.492   3.934
 9953SOL    HW140538   3.412   3.414   3.949
 9953SOL    HW240539   3.261   3.459   3.906
 9954SOL     OW40540   0.742   8.306   0.120
 9954SOL    HW140541   0.777   8.368   0.191
 9954SOL    HW240542   0.655   8.341   0.086
 9955SOL     OW40543   3.482   6.722   1.974
 9955SOL    HW140544   3.426   6.712   1.892
 9955SOL    HW240545   3.491   6.819   1.997
 9956SOL     OW40546   9.327   0.671   0.784
 9956SOL    HW140547   9.349   0.644   0.690
 9956SOL    HW240548   9.388   0.745   0.812
 9957SOL     OW40549   8.374   8.993   2.072
 9957SOL    HW140550   8.443   9.002   2.143
 9957SOL    HW240551   8.370   9.077   2.018
 9958SOL     OW40552   0.557   4.946   3.547
 9958SOL    HW140553   0.616   4.866   3.539
 9958SOL    HW240554   0.552   4.993   3.458
 9959SOL     OW40555   9.252   6.277   0.135
 9959SOL    HW140556   9.189   6.317   0.068
 9959SOL    HW240557   9.200   6.248   0.215
 9960SOL     OW40558   6.733   0.874   4.312
 9960SOL    HW140559   6.716   0.960   4.263
 9960SOL    HW240560   6.760   0.894   4.406
 9961SOL     OW40561   2.925   1.935   1.816
 9961SOL    HW140562   3.019   1.966   1.832
 9961SOL    HW240563   2.906   1.937   1.718
 9962SOL     OW40564   1.351   5.923   1.990
 9962SOL    HW140565   1.415   5.896   1.918
 9962SOL    HW240566   1.396   5.988   2.051
 9963SOL     OW40567   0.765   5.634   2.578
 9963SOL    HW140568   0.847   5.690   2.565
 9963SOL    HW240569   0.710   5.671   2.653
 9964SOL     OW40570   5.778   1.582   2.855
 9964SOL    HW140571   5.713   1.564   2.781
 9964SOL    HW240572   5.778   1.679   2.876
 9965SOL     OW40573   3.894   0.325   2.179
 9965SOL    HW140574   3.817   0.293   2.234
 9965SOL    HW240575   3.887   0.423   2.165
 9966SOL     OW40576   5.379   0.507   3.110
 9966SOL    HW140577   5.451   0.565   3.150
 9966SOL    HW240578   5.326   0.465   3.183
 9967SOL     OW40579   0.699   4.903   0.235
 9967SOL    HW140580   0.756   4.848   0.295
 9967SOL    HW240581   0.753   4.978   0.196
 9968SOL     OW40582   2.808   9.984   0.425
 9968SOL    HW140583   2.785   9.888   0.441
 9968SOL    HW240584   2.725   0.036   0.405
 9969SOL     OW40585   9.241   2.780   0.488
 9969SOL    HW140586   9.145   2.790   0.513
 9969SOL    HW240587   9.252   2.795   0.390
 9970SOL     OW40588   1.406   4.474   1.502
 9970SOL    HW140589   1.327   4.535   1.508
 9970SOL    HW240590   1.446   4.480   1.410
 9971SOL     OW40591   1.800   4.151   2.973
 9971SOL    HW140592   1.897   4.131   2.970
 9971SOL    HW240593   1.782   4.217   3.046
 9972SOL     OW40594   4.986   5.505   0.994
 9972SOL    HW140595   4.999   5.603   1.005
 9972SOL    HW240596   5.074   5.458   1.000
 9973SOL     OW40597   9.075   5.706   2.536
 9973SOL    HW140598   9.127   5.659   2.607
 9973SOL    HW240599   9.125   5.703   2.450
 9974SOL     OW40600   3.526   7.030   3.345
 9974SOL    HW140601   3.460   7.030   3.269
 9974SOL    HW240602   3.564   7.122   3.355
 9975SOL     OW40603   9.777   8.850   4.168
 9975SOL    HW140604   9.736   8.759   4.170
 9975SOL    HW240605   9.709   8.917   4.197
 9976SOL     OW40606   6.026   1.194   3.424
 9976SOL    HW140607   5.937   1.209   3.466
 9976SOL    HW240608   6.063   1.105   3.453
 9977SOL     OW40609   6.755   1.075   3.654
 9977SOL    HW140610   6.767   0.982   3.691
 9977SOL    HW240611   6.715   1.069   3.562
 9978SOL     OW40612   8.105   8.761   2.366
 9978SOL    HW140613   8.166   8.748   2.287
 9978SOL    HW240614   8.146   8.826   2.430
 9979SOL     OW40615   2.831   4.460   3.921
 9979SOL    HW140616   2.780   4.392   3.973
 9979SOL    HW240617   2.926   4.462   3.953
 9980SOL     OW40618   4.155   0.700   1.821
 9980SOL    HW140619   4.148   0.671   1.726
 9980SOL    HW240620   4.209   0.633   1.872
 9981SOL     OW40621   9.775   0.507   0.366
 9981SOL    HW140622   9.846   0.448   0.406
 9981SOL    HW240623   9.756   0.583   0.429
 9982SOL     OW40624   6.133   8.936   1.463
 9982SOL    HW140625   6.106   8.994   1.540
 9982SOL    HW240626   6.057   8.876   1.439
 9983SOL     OW40627   3.384   2.678   1.480
 9983SOL    HW140628   3.458   2.654   1.418
 9983SOL    HW240629   3.394   2.773   1.509
 9984SOL     OW40630   2.565   0.556   2.570
 9984SOL    HW140631   2.545   0.593   2.661
 9984SOL    HW240632   2.655   0.512   2.571
 9985SOL     OW40633   5.025   0.388   1.406
 9985SOL    HW140634   4.933   0.357   1.383
 9985SOL    HW240635   5.092   0.333   1.357
 9986SOL     OW40636   2.458   3.536   2.671
 9986SOL    HW140637   2.417   3.474   2.738
 9986SOL    HW240638   2.490   3.484   2.592
 9987SOL     OW40639   3.840   2.338   0.144
 9987SOL    HW140640   3.934   2.317   0.116
 9987SOL    HW240641   3.835   2.435   0.170
 9988SOL     OW40642   9.874   0.093   0.849
 9988SOL    HW140643   9.859   0.182   0.805
 9988SOL    HW240644   9.798   0.073   0.910
 9989SOL     OW40645   2.774   2.778   2.726
 9989SOL    HW140646   2.811   2.861   2.685
 9989SOL    HW240647   2.790   2.701   2.664
 9990SOL     OW40648   3.781   5.454   1.773
 9990SOL    HW140649   3.872   5.424   1.802
 9990SOL    HW240650   3.715   5.382   1.792
 9991SOL     OW40651   2.719   6.604   2.464
 9991SOL    HW140652   2.742   6.636   2.556
 9991SOL    HW240653   2.791   6.633   2.400
 9992SOL     OW40654   8.487   7.355   0.390
 9992SOL    HW140655   8.495   7.451   0.362
 9992SOL    HW240656   8.578   7.313   0.391
 9993SOL     OW40657   3.078   6.995   0.480
 9993SOL    HW140658   3.157   6.989   0.419
 9993SOL    HW240659   3.020   6.915   0.469
 9994SOL     OW40660   9.536   1.453   1.274
 9994SOL    HW140661   9.442   1.489   1.279
 9994SOL    HW240662   9.581   1.490   1.193
 9995SOL     OW40663   9.571   2.725   2.552
 9995SOL    HW140664   9.472   2.715   2.541
 9995SOL    HW240665   9.617   2.650   2.505
 9996SOL     OW40666   2.717   9.266   0.389
 9996SOL    HW140667   2.701   9.217   0.475
 9996SOL    HW240668   2.791   9.220   0.339
 9997SOL     OW40669   9.647   7.723   3.347
 9997SOL    HW140670   9.700   7.645   3.313
 9997SOL    HW240671   9.706   7.779   3.406
 9998SOL     OW40672   8.867   5.838   3.820
 9998SOL    HW140673   8.922   5.894   3.758
 9998SOL    HW240674   8.771   5.861   3.809
 9999SOL     OW40675   5.535   9.957   4.260
 9999SOL    HW140676   5.575   0.022   4.195
 9999SOL    HW240677   5.544   9.992   4.353
10000SOL     OW40678   6.635   9.048   1.488
10000SOL    HW140679   6.596   9.018   1.401
10000SOL    HW240680   6.562   9.083   1.547
10001SOL     OW40681   4.084   0.461   3.820
10001SOL    HW140682   4.171   0.429   3.782
10001SOL    HW240683   4.067   0.416   3.908
10002SOL     OW40684   2.384   2.603   3.571
10002SOL    HW140685   2.440   2.673   3.614
10002SOL    HW240686   2.292   2.604   3.611
10003SOL     OW40687   7.883   7.219   3.286
10003SOL    HW140688   7.911   7.170   3.369
10003SOL    HW240689   7.930   7.180   3.207
10004SOL     OW40690   8.782   3.311   2.692
10004SOL    HW140691   8.769   3.217   2.658
10004SOL    HW240692   8.827   3.308   2.781
10005SOL     OW40693   7.386   2.603   1.477
10005SOL    HW140694   7.366   2.604   1.575
10005SOL    HW240695   7.457   2.536   1.458
10006SOL     OW40696   8.003   6.474   3.355
10006SOL    HW140697   7.982   6.511   3.264
10006SOL    HW240698   7.918   6.457   3.404
10007SOL     OW40699   9.689   3.702   3.642
10007SOL    HW140700   9.663   3.704   3.739
10007SOL    HW240701   9.679   3.609   3.607
10008SOL     OW40702   3.343   2.508   1.849
10008SOL    HW140703   3.310   2.602   1.848
10008SOL    HW240704   3.395   2.493   1.934
10009SOL     OW40705   8.006   4.111   1.099
10009SOL    HW140706   7.961   4.077   1.181
10009SOL    HW240707   7.937   4.138   1.032
10010SOL     OW40708   1.802   6.774   0.741
10010SOL    HW140709   1.727   6.833   0.712
10010SOL    HW240710   1.792   6.684   0.700
10011SOL     OW40711   2.039   3.766   3.286
10011SOL    HW140712   2.138   3.766   3.274
10011SOL    HW240713   2.017   3.751   3.382
10012SOL     OW40714   0.209   6.922   2.919
10012SOL    HW140715   0.290   6.878   2.958
10012SOL    HW240716   0.154   6.961   2.992
10013SOL     OW40717   1.520   8.617   0.936
10013SOL    HW140718   1.562   8.538   0.980
10013SOL    HW240719   1.520   8.604   0.836
10014SOL     OW40720   7.798   5.862   3.327
10014SOL    HW140721   7.859   5.784   3.343
10014SOL    HW240722   7.819   5.903   3.238
10015SOL     OW40723   3.905   9.055   2.961
10015SOL    HW140724   3.927   9.144   3.000
10015SOL    HW240725   3.827   9.065   2.899
10016SOL     OW40726   2.082   7.379   3.171
10016SOL    HW140727   2.078   7.331   3.259
10016SOL    HW240728   2.153   7.450   3.175
10017SOL     OW40729   1.498   7.237   1.175
10017SOL    HW140730   1.457   7.282   1.096
10017SOL    HW240731   1.433   7.172   1.214
10018SOL     OW40732   0.912   0.726   3.154
10018SOL    HW140733   0.869   0.682   3.075
10018SOL    HW240734   0.989   0.670   3.184
10019SOL     OW40735   3.886   4.204   0.232
10019SOL    HW140736   3.809   4.260   0.202
10019SOL    HW240737   3.905   4.223   0.329
10020SOL     OW40738   1.916   1.520   1.025
10020SOL    HW140739   1.946   1.565   1.108
10020SOL    HW240740   1.860   1.440   1.048
10021SOL     OW40741   6.774   6.815   2.337
10021SOL    HW140742   6.700   6.866   2.292
10021SOL    HW240743   6.860   6.832   2.288
10022SOL     OW40744   5.479   0.406   2.718
10022SOL    HW140745   5.507   0.381   2.810
10022SOL    HW240746   5.379   0.400   2.711
10023SOL     OW40747   8.400   0.867   3.866
10023SOL    HW140748   8.376   0.937   3.933
10023SOL    HW240749   8.424   0.782   3.913
10024SOL     OW40750   7.682   9.321   1.696
10024SOL    HW140751   7.641   9.244   1.647
10024SOL    HW240752   7.613   9.367   1.751
10025SOL     OW40753   0.271   3.655   1.196
10025SOL    HW140754   0.358   3.608   1.214
10025SOL    HW240755   0.200   3.614   1.253
10026SOL     OW40756   9.972   8.030   2.319
10026SOL    HW140757   9.886   8.058   2.276
10026SOL    HW240758   0.043   8.098   2.298
10027SOL     OW40759   5.213   2.164   2.540
10027SOL    HW140760   5.283   2.096   2.518
10027SOL    HW240761   5.160   2.185   2.458
10028SOL     OW40762   0.774   3.493   1.321
10028SOL    HW140763   0.837   3.430   1.277
10028SOL    HW240764   0.798   3.587   1.296
10029SOL     OW40765   8.870   9.643   0.777
10029SOL    HW140766   8.934   9.688   0.715
10029SOL    HW240767   8.868   9.545   0.757
10030SOL     OW40768   1.161   6.829   2.627
10030SOL    HW140769   1.112   6.747   2.658
10030SOL    HW240770   1.127   6.909   2.675
10031SOL     OW40771   1.261   5.229   1.836
10031SOL    HW140772   1.287   5.322   1.809
10031SOL    HW240773   1.161   5.224   1.844
10032SOL     OW40774   2.307   4.387   0.178
10032SOL    HW140775   2.387   4.364   0.232
10032SOL    HW240776   2.272   4.304   0.134
10033SOL     OW40777   1.219   4.785   3.817
10033SOL    HW140778   1.248   4.781   3.722
10033SOL    HW240779   1.175   4.873   3.835
10034SOL     OW40780   9.782   4.480   1.814
10034SOL    HW140781   9.742   4.566   1.783
10034SOL    HW240782   9.879   4.478   1.790
10035SOL     OW40783   9.921   0.181   0.275
10035SOL    HW140784   0.011   0.158   0.236
10035SOL    HW240785   9.934   0.237   0.357
10036SOL     OW40786   4.942   0.585   0.143
10036SOL    HW140787   4.974   0.628   0.227
10036SOL    HW240788   5.017   0.533   0.102
10037SOL     OW40789   4.512   4.371   1.835
10037SOL    HW140790   4.471   4.345   1.922
10037SOL    HW240791   4.609   4.391   1.848
10038SOL     OW40792   4.080   1.347   4.250
10038SOL    HW140793   4.082   1.445   4.270
10038SOL    HW240794   4.005   1.328   4.187
10039SOL     OW40795   9.847   9.171   3.283
10039SOL    HW140796   9.900   9.247   3.245
10039SOL    HW240797   9.763   9.207   3.324
10040SOL     OW40798   1.453   9.286   1.870
10040SOL    HW140799   1.426   9.363   1.814
10040SOL    HW240800   1.546   9.300   1.904
10041SOL     OW40801   1.447   3.434   1.306
10041SOL    HW140802   1.454   3.396   1.214
10041SOL    HW240803   1.532   3.480   1.330
10042SOL     OW40804   8.983   1.614   1.904
10042SOL    HW140805   9.039   1.542   1.947
10042SOL    HW240806   9.030   1.647   1.822
10043SOL     OW40807   4.458   5.516   1.313
10043SOL    HW140808   4.489   5.611   1.310
10043SOL    HW240809   4.377   5.505   1.255
10044SOL     OW40810   2.678   1.497   2.360
10044SOL    HW140811   2.597   1.463   2.311
10044SOL    HW240812   2.760   1.469   2.311
10045SOL     OW40813   8.745   1.713   4.013
10045SOL    HW140814   8.683   1.742   3.940
10045SOL    HW240815   8.785   1.624   3.990
10046SOL     OW40816   7.826   6.920   2.943
10046SOL    HW140817   7.775   6.889   2.863
10046SOL    HW240818   7.791   6.874   3.025
10047SOL     OW40819   8.749   2.754   3.158
10047SOL    HW140820   8.711   2.738   3.249
10047SOL    HW240821   8.682   2.803   3.102
10048SOL     OW40822   1.472   8.011   2.031
10048SOL    HW140823   1.473   7.911   2.029
10048SOL    HW240824   1.433   8.046   1.946
10049SOL     OW40825   1.534   8.683   0.109
10049SOL    HW140826   1.571   8.675   0.016
10049SOL    HW240827   1.584   8.620   0.169
10050SOL     OW40828   0.441   1.496   3.270
10050SOL    HW140829   0.345   1.470   3.269
10050SOL    HW240830   0.459   1.559   3.195
10051SOL     OW40831   2.347   1.502   4.143
10051SOL    HW140832   2.329   1.593   4.106
10051SOL    HW240833   2.263   1.447   4.141
10052SOL     OW40834   3.649   7.076   1.031
10052SOL    HW140835   3.627   7.170   1.059
10052SOL    HW240836   3.583   7.045   0.963
10053SOL     OW40837   7.526   9.311   1.350
10053SOL    HW140838   7.622   9.288   1.366
10053SOL    HW240839   7.471   9.227   1.357
10054SOL     OW40840   9.433   9.456   4.106
10054SOL    HW140841   9.394   9.506   4.029
10054SOL    HW240842   9.509   9.509   4.145
10055SOL     OW40843   9.562   9.018   0.146
10055SOL    HW140844   9.481   9.028   0.204
10055SOL    HW240845   9.539   9.044   0.052
10056SOL     OW40846   7.189   0.372   2.858
10056SOL    HW140847   7.232   0.283   2.868
10056SOL    HW240848   7.149   0.379   2.766
10057SOL     OW40849   8.687   2.841   2.259
10057SOL    HW140850   8.632   2.757   2.263
10057SOL    HW240851   8.670   2.888   2.173
10058SOL     OW40852   9.989   4.804   2.576
10058SOL    HW140853   0.005   4.734   2.507
10058SOL    HW240854   9.891   4.816   2.590
10059SOL     OW40855   1.065   8.173   3.991
10059SOL    HW140856   1.071   8.105   4.064
10059SOL    HW240857   1.087   8.264   4.027
10060SOL     OW40858   3.619   3.244   1.429
10060SOL    HW140859   3.695   3.189   1.395
10060SOL    HW240860   3.580   3.297   1.354
10061SOL     OW40861   8.962   8.942   2.772
10061SOL    HW140862   9.011   8.981   2.850
10061SOL    HW240863   8.872   8.910   2.802
10062SOL     OW40864   9.799   6.702   1.170
10062SOL    HW140865   9.763   6.678   1.080
10062SOL    HW240866   9.894   6.672   1.177
10063SOL     OW40867   2.299   4.625   2.267
10063SOL    HW140868   2.230   4.589   2.330
10063SOL    HW240869   2.383   4.571   2.275
10064SOL     OW40870   4.822   9.945   1.044
10064SOL    HW140871   4.884   9.896   0.983
10064SOL    HW240872   4.815   0.040   1.016
10065SOL     OW40873   4.201   1.108   4.228
10065SOL    HW140874   4.159   1.196   4.250
10065SOL    HW240875   4.300   1.113   4.246
10066SOL     OW40876   8.325   4.322   3.883
10066SOL    HW140877   8.394   4.340   3.954
10066SOL    HW240878   8.352   4.241   3.831
10067SOL     OW40879   9.833   9.716   3.419
10067SOL    HW140880   9.778   9.799   3.428
10067SOL    HW240881   9.783   9.639   3.458
10068SOL     OW40882   2.866   5.035   1.742
10068SOL    HW140883   2.784   4.978   1.741
10068SOL    HW240884   2.942   4.982   1.780
10069SOL     OW40885   4.311   0.522   0.122
10069SOL    HW140886   4.220   0.541   0.159
10069SOL    HW240887   4.302   0.488   0.028
10070SOL     OW40888   7.327   1.051   1.243
10070SOL    HW140889   7.281   1.138   1.226
10070SOL    HW240890   7.286   1.006   1.322
10071SOL     OW40891   1.547   9.036   2.936
10071SOL    HW140892   1.538   9.130   2.972
10071SOL    HW240893   1.505   8.972   3.001
10072SOL     OW40894   3.492   4.372   1.757
10072SOL    HW140895   3.581   4.388   1.798
10072SOL    HW240896   3.421   4.418   1.812
10073SOL     OW40897   9.263   6.363   4.346
10073SOL    HW140898   9.163   6.363   4.341
10073SOL    HW240899   9.292   6.323   4.433
10074SOL     OW40900   5.718   8.709   3.754
10074SOL    HW140901   5.712   8.618   3.796
10074SOL    HW240902   5.629   8.733   3.714
10075SOL     OW40903   9.530   4.141   3.931
10075SOL    HW140904   9.518   4.093   4.017
10075SOL    HW240905   9.557   4.236   3.949
10076SOL     OW40906   9.914   6.300   0.737
10076SOL    HW140907   9.823   6.314   0.699
10076SOL    HW240908   9.978   6.278   0.663
10077SOL     OW40909   0.925   8.338   0.777
10077SOL    HW140910   0.915   8.432   0.744
10077SOL    HW240911   0.835   8.301   0.799
10078SOL     OW40912   0.638   2.778   0.703
10078SOL    HW140913   0.680   2.707   0.759
10078SOL    HW240914   0.708   2.844   0.675
10079SOL     OW40915   2.895   3.141   0.127
10079SOL    HW140916   2.988   3.105   0.116
10079SOL    HW240917   2.828   3.071   0.102
10080SOL     OW40918   9.682   1.926   0.304
10080SOL    HW140919   9.614   1.853   0.303
10080SOL    HW240920   9.764   1.898   0.254
10081SOL     OW40921   5.414   0.237   1.982
10081SOL    HW140922   5.452   0.257   2.072
10081SOL    HW240923   5.315   0.226   1.989
10082SOL     OW40924   4.576   4.022   0.350
10082SOL    HW140925   4.594   3.975   0.436
10082SOL    HW240926   4.483   4.000   0.319
10083SOL     OW40927   4.212   0.342   3.408
10083SOL    HW140928   4.286   0.402   3.378
10083SOL    HW240929   4.136   0.397   3.443
10084SOL     OW40930   9.047   5.627   3.876
10084SOL    HW140931   8.975   5.694   3.858
10084SOL    HW240932   9.011   5.552   3.932
10085SOL     OW40933   5.749   7.491   2.667
10085SOL    HW140934   5.743   7.392   2.664
10085SOL    HW240935   5.813   7.523   2.596
10086SOL     OW40936   7.122   9.267   1.414
10086SOL    HW140937   7.033   9.229   1.441
10086SOL    HW240938   7.151   9.336   1.481
10087SOL     OW40939   6.737   0.943   2.283
10087SOL    HW140940   6.703   0.976   2.195
10087SOL    HW240941   6.802   0.869   2.268
10088SOL     OW40942   7.621   1.805   3.410
10088SOL    HW140943   7.595   1.729   3.351
10088SOL    HW240944   7.659   1.770   3.496
10089SOL     OW40945   8.310   2.349   2.649
10089SOL    HW140946   8.222   2.305   2.669
10089SOL    HW240947   8.383   2.303   2.700
10090SOL     OW40948   8.309   5.869   1.053
10090SOL    HW140949   8.283   5.953   1.102
10090SOL    HW240950   8.323   5.890   0.956
10091SOL     OW40951   9.826   7.470   2.168
10091SOL    HW140952   9.877   7.492   2.250
10091SOL    HW240953   9.887   7.475   2.088
10092SOL     OW40954   0.641   1.788   2.199
10092SOL    HW140955   0.734   1.768   2.167
10092SOL    HW240956   0.582   1.805   2.119
10093SOL     OW40957   4.209   5.512   1.192
10093SOL    HW140958   4.148   5.584   1.158
10093SOL    HW240959   4.188   5.495   1.289
10094SOL     OW40960   6.081   1.429   2.618
10094SOL    HW140961   5.996   1.480   2.604
10094SOL    HW240962   6.154   1.494   2.639
10095SOL     OW40963   0.603   5.901   3.465
10095SOL    HW140964   0.696   5.918   3.498
10095SOL    HW240965   0.606   5.842   3.384
10096SOL     OW40966   4.553   8.621   0.234
10096SOL    HW140967   4.511   8.711   0.238
10096SOL    HW240968   4.627   8.622   0.166
10097SOL     OW40969   8.871   4.331   1.044
10097SOL    HW140970   8.965   4.363   1.055
10097SOL    HW240971   8.811   4.382   1.106
10098SOL     OW40972   9.319   9.779   3.224
10098SOL    HW140973   9.263   9.728   3.159
10098SOL    HW240974   9.343   9.720   3.301
10099SOL     OW40975   9.928   0.427   3.346
10099SOL    HW140976   9.934   0.478   3.431
10099SOL    HW240977   9.946   0.488   3.269
10100SOL     OW40978   5.119   1.283   2.253
10100SOL    HW140979   5.086   1.222   2.181
10100SOL    HW240980   5.066   1.368   2.252
10101SOL     OW40981   5.315   9.740   3.893
10101SOL    HW140982   5.373   9.760   3.814
10101SOL    HW240983   5.372   9.728   3.974
10102SOL     OW40984   4.410   2.696   2.755
10102SOL    HW140985   4.368   2.612   2.720
10102SOL    HW240986   4.349   2.739   2.822
10103SOL     OW40987   6.133   0.955   3.520
10103SOL    HW140988   6.155   0.950   3.618
10103SOL    HW240989   6.209   0.917   3.467
10104SOL     OW40990   5.338   1.244   3.946
10104SOL    HW140991   5.241   1.245   3.924
10104SOL    HW240992   5.353   1.190   4.029
10105SOL     OW40993   2.914   0.024   2.658
10105SOL    HW140994   2.985   9.993   2.722
10105SOL    HW240995   2.952   0.027   2.565
10106SOL     OW40996   3.458   9.674   0.626
10106SOL    HW140997   3.436   9.627   0.711
10106SOL    HW240998   3.533   9.625   0.580
10107SOL     OW40999   3.663   2.679   1.097
10107SOL    HW141000   3.604   2.759   1.105
10107SOL    HW241001   3.642   2.630   1.013
10108SOL     OW41002   2.849   8.008   0.835
10108SOL    HW141003   2.849   7.980   0.739
10108SOL    HW241004   2.881   8.102   0.842
10109SOL     OW41005   8.552   9.320   0.608
10109SOL    HW141006   8.476   9.372   0.648
10109SOL    HW241007   8.591   9.260   0.678
10110SOL     OW41008   0.344   4.726   0.373
10110SOL    HW141009   0.394   4.647   0.407
10110SOL    HW241010   0.248   4.703   0.360
10111SOL     OW41011   1.713   9.931   1.177
10111SOL    HW141012   1.624   9.948   1.219
10111SOL    HW241013   1.734   0.004   1.112
10112SOL     OW41014   2.551   7.607   3.809
10112SOL    HW141015   2.540   7.588   3.712
10112SOL    HW241016   2.462   7.610   3.854
10113SOL     OW41017   9.375   6.104   3.823
10113SOL    HW141018   9.420   6.067   3.741
10113SOL    HW241019   9.294   6.154   3.796
10114SOL     OW41020   9.143   7.191   2.088
10114SOL    HW141021   9.101   7.212   2.000
10114SOL    HW241022   9.231   7.240   2.095
10115SOL     OW41023   2.818   6.276   2.712
10115SOL    HW141024   2.813   6.347   2.783
10115SOL    HW241025   2.732   6.225   2.711
10116SOL     OW41026   1.172   0.814   0.721
10116SOL    HW141027   1.103   0.750   0.757
10116SOL    HW241028   1.137   0.907   0.727
10117SOL     OW41029   8.537   8.229   3.021
10117SOL    HW141030   8.612   8.163   3.018
10117SOL    HW241031   8.572   8.321   3.008
10118SOL     OW41032   3.406   7.676   0.158
10118SOL    HW141033   3.319   7.648   0.199
10118SOL    HW241034   3.476   7.608   0.178
10119SOL     OW41035   1.088   6.257   1.305
10119SOL    HW141036   1.067   6.189   1.375
10119SOL    HW241037   1.149   6.328   1.343
10120SOL     OW41038   2.168   0.565   3.407
10120SOL    HW141039   2.155   0.663   3.423
10120SOL    HW241040   2.263   0.540   3.425
10121SOL     OW41041   1.524   3.182   2.712
10121SOL    HW141042   1.443   3.239   2.702
10121SOL    HW241043   1.505   3.090   2.680
10122SOL     OW41044   7.061   8.096   2.444
10122SOL    HW141045   7.022   8.094   2.353
10122SOL    HW241046   7.007   8.038   2.505
10123SOL     OW41047   2.514   6.684   0.850
10123SOL    HW141048   2.502   6.764   0.908
10123SOL    HW241049   2.547   6.607   0.904
10124SOL     OW41050   9.312   2.883   1.810
10124SOL    HW141051   9.223   2.929   1.816
10124SOL    HW241052   9.368   2.927   1.739
10125SOL     OW41053   3.909   2.227   2.367
10125SOL    HW141054   3.852   2.159   2.322
10125SOL    HW241055   3.985   2.182   2.413
10126SOL     OW41056   7.765   4.619   4.050
10126SOL    HW141057   7.795   4.536   4.098
10126SOL    HW241058   7.794   4.615   3.954
10127SOL     OW41059   9.915   8.336   2.405
10127SOL    HW141060   9.908   8.288   2.493
10127SOL    HW241061   9.999   8.307   2.358
10128SOL     OW41062   9.342   7.536   0.895
10128SOL    HW141063   9.373   7.452   0.850
10128SOL    HW241064   9.414   7.569   0.956
10129SOL     OW41065   2.862   7.173   4.018
10129SOL    HW141066   2.834   7.090   4.067
10129SOL    HW241067   2.784   7.211   3.968
10130SOL     OW41068   9.606   2.270   4.090
10130SOL    HW141069   9.655   2.273   4.177
10130SOL    HW241070   9.620   2.356   4.041
10131SOL     OW41071   0.105   4.584   0.513
10131SOL    HW141072   0.173   4.627   0.572
10131SOL    HW241073   0.069   4.651   0.448
10132SOL     OW41074   0.747   5.108   1.077
10132SOL    HW141075   0.789   5.017   1.085
10132SOL    HW241076   0.815   5.173   1.044
10133SOL     OW41077   2.145   2.855   1.798
10133SOL    HW141078   2.164   2.869   1.700
10133SOL    HW241079   2.231   2.838   1.846
10134SOL     OW41080   0.261   6.274   1.795
10134SOL    HW141081   0.282   6.327   1.713
10134SOL    HW241082   0.346   6.251   1.842
10135SOL     OW41083   2.090   8.949   0.181
10135SOL    HW141084   2.164   8.916   0.122
10135SOL    HW241085   2.012   8.887   0.174
10136SOL     OW41086   3.573   9.158   3.261
10136SOL    HW141087   3.581   9.256   3.280
10136SOL    HW241088   3.570   9.144   3.162
10137SOL     OW41089   7.101   6.583   3.522
10137SOL    HW141090   7.108   6.673   3.478
10137SOL    HW241091   7.006   6.568   3.551
10138SOL     OW41092   1.210   1.349   2.796
10138SOL    HW141093   1.297   1.302   2.812
10138SOL    HW241094   1.159   1.303   2.724
10139SOL     OW41095   2.878   0.121   3.808
10139SOL    HW141096   2.880   0.111   3.908
10139SOL    HW241097   2.947   0.187   3.780
10140SOL     OW41098   8.046   3.249   0.251
10140SOL    HW141099   8.109   3.208   0.185
10140SOL    HW241100   8.076   3.342   0.273
10141SOL     OW41101   7.931   0.170   2.125
10141SOL    HW141102   7.870   0.142   2.200
10141SOL    HW241103   8.006   0.224   2.161
10142SOL     OW41104   1.483   7.833   3.275
10142SOL    HW141105   1.423   7.839   3.196
10142SOL    HW241106   1.440   7.775   3.345
10143SOL     OW41107   0.291   1.062   1.458
10143SOL    HW141108   0.207   1.020   1.424
10143SOL    HW241109   0.273   1.109   1.545
10144SOL     OW41110   8.115   1.055   1.904
10144SOL    HW141111   8.021   1.068   1.872
10144SOL    HW241112   8.176   1.117   1.854
10145SOL     OW41113   8.057   9.246   2.439
10145SOL    HW141114   8.042   9.341   2.413
10145SOL    HW241115   8.153   9.234   2.466
10146SOL     OW41116   2.305   8.911   1.626
10146SOL    HW141117   2.375   8.970   1.666
10146SOL    HW241118   2.223   8.965   1.608
10147SOL     OW41119   2.790   0.319   2.300
10147SOL    HW141120   2.815   0.339   2.205
10147SOL    HW241121   2.697   0.281   2.303
10148SOL     OW41122   9.231   6.693   3.693
10148SOL    HW141123   9.313   6.690   3.750
10148SOL    HW241124   9.200   6.788   3.684
10149SOL     OW41125   7.044   7.915   2.890
10149SOL    HW141126   7.027   7.924   2.988
10149SOL    HW241127   7.115   7.981   2.863
10150SOL     OW41128   8.931   6.164   1.709
10150SOL    HW141129   8.901   6.080   1.663
10150SOL    HW241130   8.878   6.241   1.675
10151SOL     OW41131   1.672   5.824   4.142
10151SOL    HW141132   1.679   5.758   4.067
10151SOL    HW241133   1.736   5.899   4.126
10152SOL     OW41134   3.140   4.644   0.378
10152SOL    HW141135   3.203   4.697   0.322
10152SOL    HW241136   3.046   4.659   0.346
10153SOL     OW41137   6.561   1.769   2.468
10153SOL    HW141138   6.503   1.813   2.399
10153SOL    HW241139   6.542   1.671   2.469
10154SOL     OW41140   4.666   6.744   3.350
10154SOL    HW141141   4.755   6.717   3.388
10154SOL    HW241142   4.593   6.715   3.411
10155SOL     OW41143   5.904   7.637   1.534
10155SOL    HW141144   5.998   7.603   1.533
10155SOL    HW241145   5.903   7.732   1.504
10156SOL     OW41146   0.491   1.281   0.073
10156SOL    HW141147   0.533   1.222   0.004
10156SOL    HW241148   0.550   1.285   0.153
10157SOL     OW41149   7.907   7.733   3.007
10157SOL    HW141150   7.955   7.818   2.984
10157SOL    HW241151   7.810   7.753   3.024
10158SOL     OW41152   5.919   9.591   1.294
10158SOL    HW141153   5.979   9.641   1.232
10158SOL    HW241154   5.862   9.656   1.345
10159SOL     OW41155   2.751   8.814   0.375
10159SOL    HW141156   2.720   8.852   0.288
10159SOL    HW241157   2.675   8.766   0.420
10160SOL     OW41158   3.487   0.828   1.575
10160SOL    HW141159   3.416   0.874   1.627
10160SOL    HW241160   3.543   0.772   1.637
10161SOL     OW41161   8.785   0.751   1.656
10161SOL    HW141162   8.764   0.687   1.582
10161SOL    HW241163   8.710   0.751   1.722
10162SOL     OW41164   4.053   1.620   4.266
10162SOL    HW141165   4.122   1.679   4.225
10162SOL    HW241166   3.962   1.661   4.254
10163SOL     OW41167   3.131   7.460   1.740
10163SOL    HW141168   3.101   7.508   1.823
10163SOL    HW241169   3.211   7.404   1.761
10164SOL     OW41170   1.003   4.029   3.865
10164SOL    HW141171   0.963   4.043   3.775
10164SOL    HW241172   1.085   4.086   3.875
10165SOL     OW41173   6.336   0.910   2.496
10165SOL    HW141174   6.412   0.845   2.493
10165SOL    HW241175   6.370   0.999   2.525
10166SOL     OW41176   1.032   1.678   2.936
10166SOL    HW141177   1.084   1.670   2.850
10166SOL    HW241178   1.014   1.774   2.955
10167SOL     OW41179   0.649   0.699   2.183
10167SOL    HW141180   0.597   0.778   2.152
10167SOL    HW241181   0.608   0.615   2.147
10168SOL     OW41182   0.636   8.537   4.143
10168SOL    HW141183   0.673   8.548   4.051
10168SOL    HW241184   0.636   8.441   4.168
10169SOL     OW41185   9.738   1.914   2.226
10169SOL    HW141186   9.681   1.996   2.223
10169SOL    HW241187   9.818   1.927   2.167
10170SOL     OW41188   3.613   2.070   1.391
10170SOL    HW141189   3.596   2.099   1.485
10170SOL    HW241190   3.705   2.097   1.363
10171SOL     OW41191   5.047   4.935   0.984
10171SOL    HW141192   5.086   4.931   1.076
10171SOL    HW241193   4.994   5.019   0.974
10172SOL     OW41194   8.209   6.925   0.426
10172SOL    HW141195   8.238   7.004   0.372
10172SOL    HW241196   8.190   6.848   0.365
10173SOL     OW41197   1.071   6.049   1.485
10173SOL    HW141198   1.161   6.011   1.506
10173SOL    HW241199   1.020   5.984   1.428
10174SOL     OW41200   7.466   7.483   3.906
10174SOL    HW141201   7.563   7.502   3.914
10174SOL    HW241202   7.448   7.388   3.930
10175SOL     OW41203   0.110   2.520   0.422
10175SOL    HW141204   0.129   2.550   0.328
10175SOL    HW241205   0.011   2.512   0.435
10176SOL     OW41206   9.372   6.473   1.239
10176SOL    HW141207   9.360   6.564   1.199
10176SOL    HW241208   9.290   6.418   1.224
10177SOL     OW41209   0.037   4.584   1.066
10177SOL    HW141210   9.986   4.605   0.983
10177SOL    HW241211   0.052   4.485   1.072
10178SOL     OW41212   4.135   9.459   4.191
10178SOL    HW141213   4.112   9.555   4.210
10178SOL    HW241214   4.197   9.425   4.261
10179SOL     OW41215   2.164   6.509   1.495
10179SOL    HW141216   2.141   6.488   1.590
10179SOL    HW241217   2.083   6.543   1.447
10180SOL     OW41218   9.684   6.190   4.208
10180SOL    HW141219   9.688   6.097   4.244
10180SOL    HW241220   9.600   6.201   4.154
10181SOL     OW41221   6.459   9.639   2.587
10181SOL    HW141222   6.514   9.632   2.670
10181SOL    HW241223   6.518   9.636   2.506
10182SOL     OW41224   9.778   8.036   1.719
10182SOL    HW141225   9.820   7.951   1.750
10182SOL    HW241226   9.835   8.114   1.746
10183SOL     OW41227   8.583   9.204   3.936
10183SOL    HW141228   8.665   9.156   3.902
10183SOL    HW241229   8.514   9.207   3.864
10184SOL     OW41230   9.223   1.063   2.588
10184SOL    HW141231   9.223   1.149   2.539
10184SOL    HW241232   9.300   1.060   2.652
10185SOL     OW41233   5.194   0.116   2.305
10185SOL    HW141234   5.280   0.081   2.343
10185SOL    HW241235   5.118   0.086   2.363
10186SOL     OW41236   0.167   5.832   2.470
10186SOL    HW141237   0.224   5.887   2.531
10186SOL    HW241238   0.210   5.744   2.454
10187SOL     OW41239   2.920   6.703   2.296
10187SOL    HW141240   2.850   6.769   2.268
10187SOL    HW241241   2.980   6.684   2.218
10188SOL     OW41242   4.766   2.830   1.367
10188SOL    HW141243   4.803   2.923   1.361
10188SOL    HW241244   4.782   2.782   1.282
10189SOL     OW41245   2.673   7.073   0.831
10189SOL    HW141246   2.647   7.169   0.841
10189SOL    HW241247   2.772   7.064   0.839
10190SOL     OW41248   3.044   7.894   1.853
10190SOL    HW141249   3.132   7.938   1.837
10190SOL    HW241250   2.971   7.950   1.816
10191SOL     OW41251   8.688   4.337   1.702
10191SOL    HW141252   8.749   4.340   1.623
10191SOL    HW241253   8.598   4.303   1.674
10192SOL     OW41254   3.107   1.735   4.320
10192SOL    HW141255   3.201   1.767   4.336
10192SOL    HW241256   3.102   1.637   4.338
10193SOL     OW41257   4.110   4.013   0.978
10193SOL    HW141258   4.157   3.944   0.924
10193SOL    HW241259   4.175   4.083   1.006
10194SOL     OW41260   4.977   0.772   2.629
10194SOL    HW141261   4.985   0.867   2.660
10194SOL    HW241262   5.056   0.748   2.574
10195SOL     OW41263   8.415   4.095   3.763
10195SOL    HW141264   8.476   4.061   3.835
10195SOL    HW241265   8.351   4.023   3.737
10196SOL     OW41266   6.173   9.194   2.887
10196SOL    HW141267   6.197   9.229   2.796
10196SOL    HW241268   6.241   9.224   2.954
10197SOL     OW41269   8.884   3.862   3.808
10197SOL    HW141270   8.819   3.838   3.881
10197SOL    HW241271   8.841   3.843   3.720
10198SOL     OW41272   7.916   5.023   1.051
10198SOL    HW141273   7.910   5.026   1.150
10198SOL    HW241274   8.012   5.024   1.023
10199SOL     OW41275   3.196   6.501   2.797
10199SOL    HW141276   3.280   6.540   2.760
10199SOL    HW241277   3.212   6.405   2.821
10200SOL     OW41278   3.229   6.411   0.674
10200SOL    HW141279   3.207   6.317   0.648
10200SOL    HW241280   3.159   6.446   0.736
10201SOL     OW41281   2.571   9.648   3.901
10201SOL    HW141282   2.627   9.652   3.818
10201SOL    HW241283   2.596   9.723   3.962
10202SOL     OW41284   6.923   7.938   2.638
10202SOL    HW141285   6.882   7.851   2.609
10202SOL    HW241286   6.969   7.926   2.726
10203SOL     OW41287   8.983   2.557   3.282
10203SOL    HW141288   8.989   2.633   3.218
10203SOL    HW241289   8.894   2.512   3.273
10204SOL     OW41290   8.575   0.511   0.974
10204SOL    HW141291   8.505   0.555   1.030
10204SOL    HW241292   8.566   0.542   0.879
10205SOL     OW41293   3.180   5.675   4.084
10205SOL    HW141294   3.100   5.669   4.024
10205SOL    HW241295   3.254   5.722   4.035
10206SOL     OW41296   1.195   3.458   3.536
10206SOL    HW141297   1.163   3.494   3.448
10206SOL    HW241298   1.131   3.390   3.570
10207SOL     OW41299   7.874   2.216   4.365
10207SOL    HW141300   7.836   2.301   4.403
10207SOL    HW241301   7.973   2.216   4.376
10208SOL     OW41302   8.011   7.915   2.241
10208SOL    HW141303   7.949   7.841   2.269
10208SOL    HW241304   8.015   7.984   2.314
10209SOL     OW41305   9.078   7.083   0.389
10209SOL    HW141306   9.035   7.173   0.400
10209SOL    HW241307   9.055   7.026   0.468
10210SOL     OW41308   1.083   4.681   2.337
10210SOL    HW141309   1.011   4.663   2.270
10210SOL    HW241310   1.055   4.646   2.426
10211SOL     OW41311   7.546   2.743   0.491
10211SOL    HW141312   7.595   2.657   0.504
10211SOL    HW241313   7.508   2.774   0.578
10212SOL     OW41314   3.284   6.685   3.352
10212SOL    HW141315   3.214   6.740   3.399
10212SOL    HW241316   3.243   6.639   3.273
10213SOL     OW41317   9.742   0.792   1.698
10213SOL    HW141318   9.809   0.780   1.771
10213SOL    HW241319   9.675   0.861   1.724
10214SOL     OW41320   1.235   3.901   2.935
10214SOL    HW141321   1.193   3.810   2.936
10214SOL    HW241322   1.209   3.949   3.019
10215SOL     OW41323   1.399   4.193   0.703
10215SOL    HW141324   1.491   4.161   0.721
10215SOL    HW241325   1.336   4.115   0.697
10216SOL     OW41326   8.393   6.047   3.517
10216SOL    HW141327   8.355   6.128   3.562
10216SOL    HW241328   8.391   6.060   3.418
10217SOL     OW41329   3.552   1.299   4.375
10217SOL    HW141330   3.469   1.352   4.355
10217SOL    HW241331   3.574   1.308   4.472
10218SOL     OW41332   0.922   2.777   3.786
10218SOL    HW141333   0.942   2.687   3.824
10218SOL    HW241334   0.978   2.792   3.704
10219SOL     OW41335   1.250   5.258   2.844
10219SOL    HW141336   1.275   5.195   2.918
10219SOL    HW241337   1.238   5.207   2.759
10220SOL     OW41338   1.822   5.421   4.230
10220SOL    HW141339   1.739   5.373   4.258
10220SOL    HW241340   1.836   5.410   4.132
10221SOL     OW41341   0.853   7.837   4.248
10221SOL    HW141342   0.833   7.819   4.152
10221SOL    HW241343   0.875   7.750   4.294
10222SOL     OW41344   2.416   2.312   4.396
10222SOL    HW141345   2.482   2.253   4.442
10222SOL    HW241346   2.353   2.256   4.343
10223SOL     OW41347   4.702   6.244   1.914
10223SOL    HW141348   4.771   6.290   1.968
10223SOL    HW241349   4.733   6.151   1.892
10224SOL     OW41350   3.893   4.637   2.272
10224SOL    HW141351   3.842   4.634   2.186
10224SOL    HW241352   3.989   4.658   2.253
10225SOL     OW41353   4.326   4.249   1.674
10225SOL    HW141354   4.392   4.296   1.733
10225SOL    HW241355   4.373   4.176   1.624
10226SOL     OW41356   9.830   6.209   1.975
10226SOL    HW141357   9.900   6.198   1.905
10226SOL    HW241358   9.817   6.123   2.024
10227SOL     OW41359   2.198   5.820   1.738
10227SOL    HW141360   2.154   5.743   1.784
10227SOL    HW241361   2.132   5.893   1.725
10228SOL     OW41362   0.428   3.498   1.680
10228SOL    HW141363   0.504   3.453   1.727
10228SOL    HW241364   0.406   3.447   1.597
10229SOL     OW41365   3.687   6.797   3.945
10229SOL    HW141366   3.698   6.820   3.848
10229SOL    HW241367   3.689   6.880   4.000
10230SOL     OW41368   2.372   6.806   3.275
10230SOL    HW141369   2.316   6.865   3.218
10230SOL    HW241370   2.385   6.848   3.365
10231SOL     OW41371   5.450   1.591   2.915
10231SOL    HW141372   5.500   1.535   2.981
10231SOL    HW241373   5.354   1.596   2.941
10232SOL     OW41374   1.590   6.358   2.270
10232SOL    HW141375   1.627   6.426   2.333
10232SOL    HW241376   1.536   6.405   2.199
10233SOL     OW41377   8.779   7.308   3.300
10233SOL    HW141378   8.873   7.277   3.317
10233SOL    HW241379   8.715   7.247   3.347
10234SOL     OW41380   2.079   7.119   2.549
10234SOL    HW141381   2.068   7.042   2.612
10234SOL    HW241382   2.134   7.091   2.470
10235SOL     OW41383   8.467   7.834   2.749
10235SOL    HW141384   8.497   7.799   2.837
10235SOL    HW241385   8.381   7.884   2.760
10236SOL     OW41386   4.697   2.622   2.144
10236SOL    HW141387   4.684   2.562   2.223
10236SOL    HW241388   4.706   2.716   2.175
10237SOL     OW41389   0.959   4.359   3.546
10237SOL    HW141390   1.026   4.402   3.606
10237SOL    HW241391   0.972   4.391   3.453
10238SOL     OW41392   1.747   8.096   2.683
10238SOL    HW141393   1.685   8.173   2.670
10238SOL    HW241394   1.706   8.030   2.746
10239SOL     OW41395   1.386   7.335   1.940
10239SOL    HW141396   1.421   7.423   1.909
10239SOL    HW241397   1.347   7.285   1.863
10240SOL     OW41398   6.272   0.367   2.970
10240SOL    HW141399   6.337   0.436   3.000
10240SOL    HW241400   6.206   0.408   2.907
10241SOL     OW41401   4.449   0.486   3.361
10241SOL    HW141402   4.505   0.462   3.282
10241SOL    HW241403   4.490   0.447   3.444
10242SOL     OW41404   2.790   9.263   3.661
10242SOL    HW141405   2.846   9.296   3.736
10242SOL    HW241406   2.747   9.341   3.615
10243SOL     OW41407   0.728   0.637   1.313
10243SOL    HW141408   0.813   0.599   1.278
10243SOL    HW241409   0.651   0.604   1.259
10244SOL     OW41410   5.194   9.797   1.886
10244SOL    HW141411   5.258   9.871   1.862
10244SOL    HW241412   5.243   9.725   1.934
10245SOL     OW41413   3.618   1.778   1.626
10245SOL    HW141414   3.648   1.766   1.721
10245SOL    HW241415   3.698   1.781   1.566
10246SOL     OW41416   2.945   7.092   0.839
10246SOL    HW141417   3.033   7.054   0.867
10246SOL    HW241418   2.955   7.137   0.751
10247SOL     OW41419   6.071   0.623   3.158
10247SOL    HW141420   5.986   0.580   3.191
10247SOL    HW241421   6.149   0.585   3.208
10248SOL     OW41422   1.919   0.096   4.035
10248SOL    HW141423   1.893   0.065   3.944
10248SOL    HW241424   1.996   0.041   4.068
10249SOL     OW41425   9.840   6.798   3.946
10249SOL    HW141426   9.795   6.818   4.034
10249SOL    HW241427   9.920   6.857   3.936
10250SOL     OW41428   0.574   0.738   3.621
10250SOL    HW141429   0.670   0.722   3.648
10250SOL    HW241430   0.555   0.689   3.536
10251SOL     OW41431   9.996   5.578   3.026
10251SOL    HW141432   9.968   5.599   2.932
10251SOL    HW241433   9.943   5.501   3.060
10252SOL     OW41434   4.484   1.695   4.240
10252SOL    HW141435   4.447   1.734   4.324
10252SOL    HW241436   4.461   1.598   4.236
10253SOL     OW41437   0.991   6.666   0.607
10253SOL    HW141438   0.995   6.593   0.675
10253SOL    HW241439   0.895   6.687   0.587
10254SOL     OW41440   5.780   0.523   2.071
10254SOL    HW141441   5.716   0.492   2.001
10254SOL    HW241442   5.731   0.540   2.156
10255SOL     OW41443   3.081   9.537   2.346
10255SOL    HW141444   3.043   9.629   2.351
10255SOL    HW241445   3.008   9.470   2.347
10256SOL     OW41446   1.063   7.098   1.095
10256SOL    HW141447   1.099   7.030   1.031
10256SOL    HW241448   1.000   7.159   1.047
10257SOL     OW41449   7.271   9.329   2.920
10257SOL    HW141450   7.298   9.414   2.966
10257SOL    HW241451   7.349   9.293   2.869
10258SOL     OW41452   3.248   9.025   0.520
10258SOL    HW141453   3.181   9.095   0.498
10258SOL    HW241454   3.246   8.952   0.452
10259SOL     OW41455   9.469   2.696   0.602
10259SOL    HW141456   9.378   2.724   0.570
10259SOL    HW241457   9.538   2.754   0.561
10260SOL     OW41458   7.524   9.557   2.104
10260SOL    HW141459   7.589   9.539   2.178
10260SOL    HW241460   7.542   9.648   2.066
10261SOL     OW41461   9.132   3.225   0.848
10261SOL    HW141462   9.045   3.257   0.810
10261SOL    HW241463   9.114   3.153   0.915
10262SOL     OW41464   3.071   1.923   0.710
10262SOL    HW141465   3.085   1.886   0.802
10262SOL    HW241466   3.000   1.993   0.712
10263SOL     OW41467   5.675   7.765   4.188
10263SOL    HW141468   5.697   7.858   4.218
10263SOL    HW241469   5.755   7.726   4.144
10264SOL     OW41470   2.947   7.780   2.289
10264SOL    HW141471   2.910   7.772   2.196
10264SOL    HW241472   2.910   7.707   2.346
10265SOL     OW41473   4.386   4.234   2.388
10265SOL    HW141474   4.354   4.147   2.426
10265SOL    HW241475   4.480   4.224   2.354
10266SOL     OW41476   6.867   8.969   4.302
10266SOL    HW141477   6.836   9.057   4.338
10266SOL    HW241478   6.966   8.961   4.314
10267SOL     OW41479   9.222   2.237   0.734
10267SOL    HW141480   9.299   2.193   0.779
10267SOL    HW241481   9.254   2.316   0.681
10268SOL     OW41482   9.151   9.638   3.621
10268SOL    HW141483   9.132   9.614   3.716
10268SOL    HW241484   9.117   9.731   3.602
10269SOL     OW41485   8.276   4.166   1.152
10269SOL    HW141486   8.320   4.094   1.204
10269SOL    HW241487   8.179   4.144   1.139
10270SOL     OW41488   0.404   0.078   0.523
10270SOL    HW141489   0.452   0.084   0.611
10270SOL    HW241490   0.423   9.989   0.481
10271SOL     OW41491   8.972   7.313   2.562
10271SOL    HW141492   8.975   7.322   2.463
10271SOL    HW241493   8.893   7.363   2.598
10272SOL     OW41494   0.763   3.548   0.974
10272SOL    HW141495   0.670   3.511   0.964
10272SOL    HW241496   0.757   3.647   0.986
10273SOL     OW41497   1.841   2.574   0.271
10273SOL    HW141498   1.776   2.619   0.331
10273SOL    HW241499   1.854   2.479   0.300
10274SOL     OW41500   1.464   9.978   1.283
10274SOL    HW141501   1.412   0.041   1.224
10274SOL    HW241502   1.420   9.888   1.282
10275SOL     OW41503   4.853   1.694   3.776
10275SOL    HW141504   4.804   1.781   3.779
10275SOL    HW241505   4.850   1.650   3.865
10276SOL     OW41506   0.175   3.828   0.158
10276SOL    HW141507   0.078   3.851   0.165
10276SOL    HW241508   0.223   3.902   0.109
10277SOL     OW41509   5.289   7.896   4.052
10277SOL    HW141510   5.346   7.906   4.134
10277SOL    HW241511   5.341   7.852   3.980
10278SOL     OW41512   0.475   2.255   0.930
10278SOL    HW141513   0.470   2.241   0.832
10278SOL    HW241514   0.419   2.185   0.977
10279SOL     OW41515   2.116   0.471   1.398
10279SOL    HW141516   2.017   0.481   1.390
10279SOL    HW241517   2.161   0.522   1.324
10280SOL     OW41518   8.293   1.297   4.357
10280SOL    HW141519   8.305   1.197   4.356
10280SOL    HW241520   8.257   1.325   4.446
10281SOL     OW41521   3.419   3.723   0.689
10281SOL    HW141522   3.364   3.725   0.772
10281SOL    HW241523   3.510   3.760   0.708
10282SOL     OW41524   7.725   2.230   1.816
10282SOL    HW141525   7.708   2.167   1.892
10282SOL    HW241526   7.646   2.290   1.805
10283SOL     OW41527   2.636   4.592   2.077
10283SOL    HW141528   2.733   4.570   2.084
10283SOL    HW241529   2.590   4.564   2.161
10284SOL     OW41530   2.609   8.243   2.904
10284SOL    HW141531   2.515   8.240   2.939
10284SOL    HW241532   2.607   8.265   2.806
10285SOL     OW41533   8.909   8.789   2.279
10285SOL    HW141534   8.933   8.788   2.376
10285SOL    HW241535   8.919   8.882   2.244
10286SOL     OW41536   3.922   7.709   3.778
10286SOL    HW141537   3.831   7.677   3.752
10286SOL    HW241538   3.991   7.647   3.741
10287SOL     OW41539   0.509   2.594   1.263
10287SOL    HW141540   0.433   2.543   1.301
10287SOL    HW241541   0.545   2.546   1.183
10288SOL     OW41542   2.319   2.059   4.295
10288SOL    HW141543   2.225   2.046   4.325
10288SOL    HW241544   2.367   1.970   4.297
10289SOL     OW41545   0.321   8.155   0.686
10289SOL    HW141546   0.292   8.160   0.781
10289SOL    HW241547   0.358   8.064   0.667
10290SOL     OW41548   4.255   3.310   2.518
10290SOL    HW141549   4.308   3.255   2.453
10290SOL    HW241550   4.197   3.374   2.468
10291SOL     OW41551   8.004   5.265   2.495
10291SOL    HW141552   7.925   5.284   2.436
10291SOL    HW241553   8.035   5.350   2.537
10292SOL     OW41554   8.400   5.235   4.135
10292SOL    HW141555   8.319   5.202   4.087
10292SOL    HW241556   8.406   5.191   4.224
10293SOL     OW41557   3.344   3.468   0.593
10293SOL    HW141558   3.248   3.484   0.616
10293SOL    HW241559   3.399   3.547   0.622
10294SOL     OW41560   9.713   0.368   3.897
10294SOL    HW141561   9.810   0.370   3.875
10294SOL    HW241562   9.661   0.336   3.818
10295SOL     OW41563   8.987   7.738   4.283
10295SOL    HW141564   9.038   7.653   4.293
10295SOL    HW241565   8.956   7.748   4.189
10296SOL     OW41566   2.158   9.853   3.430
10296SOL    HW141567   2.087   9.915   3.461
10296SOL    HW241568   2.144   9.763   3.472
10297SOL     OW41569   1.925   6.757   0.321
10297SOL    HW141570   1.909   6.714   0.232
10297SOL    HW241571   1.862   6.718   0.388
10298SOL     OW41572   4.967   2.790   0.848
10298SOL    HW141573   5.041   2.723   0.847
10298SOL    HW241574   4.901   2.768   0.776
10299SOL     OW41575   2.727   2.210   0.954
10299SOL    HW141576   2.810   2.228   0.902
10299SOL    HW241577   2.741   2.131   1.013
10300SOL     OW41578   5.416   8.859   1.897
10300SOL    HW141579   5.514   8.840   1.901
10300SOL    HW241580   5.372   8.826   1.980
10301SOL     OW41581   7.948   6.844   2.651
10301SOL    HW141582   8.010   6.767   2.663
10301SOL    HW241583   7.990   6.927   2.688
10302SOL     OW41584   8.984   4.983   1.372
10302SOL    HW141585   8.887   4.963   1.359
10302SOL    HW241586   9.017   4.939   1.456
10303SOL     OW41587   3.944   1.402   0.959
10303SOL    HW141588   3.924   1.392   0.862
10303SOL    HW241589   3.870   1.361   1.013
10304SOL     OW41590   8.772   4.439   4.120
10304SOL    HW141591   8.834   4.423   4.043
10304SOL    HW241592   8.780   4.534   4.150
10305SOL     OW41593   0.901   9.869   3.160
10305SOL    HW141594   0.939   9.815   3.235
10305SOL    HW241595   0.855   9.950   3.196
10306SOL     OW41596   3.843   5.487   1.250
10306SOL    HW141597   3.814   5.492   1.346
10306SOL    HW241598   3.911   5.557   1.231
10307SOL     OW41599   7.956   1.387   1.250
10307SOL    HW141600   7.871   1.350   1.287
10307SOL    HW241601   7.958   1.371   1.151
10308SOL     OW41602   4.634   4.131   2.278
10308SOL    HW141603   4.674   4.207   2.226
10308SOL    HW241604   4.576   4.076   2.217
10309SOL     OW41605   0.458   6.542   2.556
10309SOL    HW141606   0.543   6.584   2.586
10309SOL    HW241607   0.390   6.548   2.629
10310SOL     OW41608   4.312   0.526   0.871
10310SOL    HW141609   4.342   0.607   0.821
10310SOL    HW241610   4.289   0.552   0.965
10311SOL     OW41611   5.134   9.580   3.750
10311SOL    HW141612   5.131   9.608   3.654
10311SOL    HW241613   5.202   9.634   3.799
10312SOL     OW41614   0.755   5.684   3.927
10312SOL    HW141615   0.718   5.636   3.848
10312SOL    HW241616   0.689   5.683   4.001
10313SOL     OW41617   6.303   0.000   1.592
10313SOL    HW141618   6.364   9.960   1.660
10313SOL    HW241619   6.227   9.937   1.574
10314SOL     OW41620   4.975   0.862   3.388
10314SOL    HW141621   5.032   0.850   3.306
10314SOL    HW241622   5.027   0.832   3.469
10315SOL     OW41623   4.445   8.340   0.945
10315SOL    HW141624   4.357   8.292   0.941
10315SOL    HW241625   4.448   8.409   0.873
10316SOL     OW41626   1.003   5.804   2.230
10316SOL    HW141627   0.985   5.901   2.213
10316SOL    HW241628   1.064   5.768   2.160
10317SOL     OW41629   0.260   2.769   1.367
10317SOL    HW141630   0.323   2.840   1.398
10317SOL    HW241631   0.204   2.738   1.444
10318SOL     OW41632   7.889   5.238   3.336
10318SOL    HW141633   7.863   5.239   3.433
10318SOL    HW241634   7.838   5.308   3.287
10319SOL     OW41635   1.838   2.835   2.898
10319SOL    HW141636   1.873   2.742   2.912
10319SOL    HW241637   1.768   2.854   2.967
10320SOL     OW41638   9.781   1.617   4.374
10320SOL    HW141639   9.686   1.610   4.345
10320SOL    HW241640   9.812   1.711   4.365
10321SOL     OW41641   0.356   1.891   3.262
10321SOL    HW141642   0.408   1.960   3.211
10321SOL    HW241643   0.277   1.934   3.305
10322SOL     OW41644   1.212   2.823   2.695
10322SOL    HW141645   1.194   2.845   2.790
10322SOL    HW241646   1.299   2.863   2.667
10323SOL     OW41647   2.008   9.283   2.180
10323SOL    HW141648   1.954   9.231   2.247
10323SOL    HW241649   2.105   9.275   2.203
10324SOL     OW41650   2.218   5.669   0.751
10324SOL    HW141651   2.167   5.584   0.765
10324SOL    HW241652   2.179   5.719   0.674
10325SOL     OW41653   0.196   7.703   2.928
10325SOL    HW141654   0.116   7.736   2.878
10325SOL    HW241655   0.176   7.612   2.966
10326SOL     OW41656   0.527   5.959   1.811
10326SOL    HW141657   0.458   5.928   1.746
10326SOL    HW241658   0.503   6.050   1.845
10327SOL     OW41659   8.241   8.299   4.280
10327SOL    HW141660   8.314   8.361   4.310
10327SOL    HW241661   8.153   8.333   4.313
10328SOL     OW41662   2.731   6.352   3.530
10328SOL    HW141663   2.730   6.435   3.474
10328SOL    HW241664   2.805   6.357   3.597
10329SOL     OW41665   1.594   9.225   0.929
10329SOL    HW141666   1.517   9.164   0.910
10329SOL    HW241667   1.572   9.282   1.008
10330SOL     OW41668   0.031   6.886   4.318
10330SOL    HW141669   0.082   6.969   4.341
10330SOL    HW241670   0.052   6.814   4.384
10331SOL     OW41671   4.676   4.373   2.140
10331SOL    HW141672   4.708   4.417   2.224
10331SOL    HW241673   4.715   4.420   2.060
10332SOL     OW41674   7.711   2.051   3.328
10332SOL    HW141675   7.690   2.115   3.403
10332SOL    HW241676   7.688   1.958   3.356
10333SOL     OW41677   2.745   5.236   0.684
10333SOL    HW141678   2.671   5.236   0.616
10333SOL    HW241679   2.773   5.142   0.702
10334SOL     OW41680   7.229   8.102   2.807
10334SOL    HW141681   7.297   8.109   2.880
10334SOL    HW241682   7.184   8.191   2.795
10335SOL     OW41683   5.697   9.153   2.830
10335SOL    HW141684   5.789   9.122   2.855
10335SOL    HW241685   5.631   9.116   2.896
10336SOL     OW41686   5.046   9.906   3.475
10336SOL    HW141687   4.952   9.918   3.442
10336SOL    HW241688   5.069   9.979   3.539
10337SOL     OW41689   9.171   8.946   3.754
10337SOL    HW141690   9.152   9.044   3.755
10337SOL    HW241691   9.117   8.901   3.826
10338SOL     OW41692   9.321   4.566   0.335
10338SOL    HW141693   9.384   4.617   0.276
10338SOL    HW241694   9.308   4.617   0.420
10339SOL     OW41695   9.783   0.954   2.082
10339SOL    HW141696   9.733   1.007   2.151
10339SOL    HW241697   9.733   0.957   1.996
10340SOL     OW41698   4.335   7.980   1.111
10340SOL    HW141699   4.384   7.905   1.068
10340SOL    HW241700   4.314   8.050   1.042
10341SOL     OW41701   3.917   6.687   2.144
10341SOL    HW141702   3.956   6.596   2.152
10341SOL    HW241703   3.844   6.686   2.075
10342SOL     OW41704   2.951   9.779   2.373
10342SOL    HW141705   2.977   9.875   2.383
10342SOL    HW241706   2.879   9.772   2.303
10343SOL     OW41707   1.592   6.254   4.384
10343SOL    HW141708   1.509   6.198   4.381
10343SOL    HW241709   1.578   6.330   4.448
10344SOL     OW41710   9.828   8.630   3.923
10344SOL    HW141711   9.764   8.612   3.997
10344SOL    HW241712   9.831   8.729   3.905
10345SOL     OW41713   1.563   9.758   0.818
10345SOL    HW141714   1.561   9.857   0.823
10345SOL    HW241715   1.567   9.720   0.911
10346SOL     OW41716   8.268   8.440   3.535
10346SOL    HW141717   8.221   8.372   3.593
10346SOL    HW241718   8.203   8.511   3.508
10347SOL     OW41719   4.563   7.670   2.751
10347SOL    HW141720   4.616   7.737   2.804
10347SOL    HW241721   4.477   7.651   2.798
10348SOL     OW41722   8.742   8.946   4.160
10348SOL    HW141723   8.645   8.956   4.139
10348SOL    HW241724   8.764   8.849   4.171
10349SOL     OW41725   6.417   1.400   2.857
10349SOL    HW141726   6.372   1.461   2.792
10349SOL    HW241727   6.348   1.344   2.902
10350SOL     OW41728   9.653   3.220   2.269
10350SOL    HW141729   9.586   3.187   2.335
10350SOL    HW241730   9.736   3.165   2.274
10351SOL     OW41731   2.450   6.050   2.523
10351SOL    HW141732   2.504   6.079   2.602
10351SOL    HW241733   2.426   6.130   2.467
10352SOL     OW41734   8.389   3.954   1.307
10352SOL    HW141735   8.444   3.884   1.260
10352SOL    HW241736   8.432   3.977   1.394
10353SOL     OW41737   9.424   2.657   1.502
10353SOL    HW141738   9.506   2.697   1.461
10353SOL    HW241739   9.440   2.642   1.600
10354SOL     OW41740   9.169   8.811   1.107
10354SOL    HW141741   9.207   8.808   1.200
10354SOL    HW241742   9.072   8.833   1.112
10355SOL     OW41743   6.629   9.618   2.809
10355SOL    HW141744   6.616   9.704   2.856
10355SOL    HW241745   6.705   9.568   2.851
10356SOL     OW41746   5.543   1.560   2.665
10356SOL    HW141747   5.574   1.466   2.658
10356SOL    HW241748   5.503   1.576   2.756
10357SOL     OW41749   9.823   4.521   3.537
10357SOL    HW141750   9.916   4.559   3.534
10357SOL    HW241751   9.826   4.426   3.508
10358SOL     OW41752   0.655   8.742   4.327
10358SOL    HW141753   0.610   8.727   4.415
10358SOL    HW241754   0.635   8.665   4.266
10359SOL     OW41755   0.393   3.007   3.567
10359SOL    HW141756   0.382   3.106   3.578
10359SOL    HW241757   0.424   2.967   3.653
10360SOL     OW41758   9.148   5.751   1.516
10360SOL    HW141759   9.190   5.840   1.529
10360SOL    HW241760   9.219   5.683   1.496
10361SOL     OW41761   5.716   0.940   1.036
10361SOL    HW141762   5.645   1.003   1.067
10361SOL    HW241763   5.702   0.850   1.078
10362SOL     OW41764   1.826   3.719   3.963
10362SOL    HW141765   1.761   3.742   4.035
10362SOL    HW241766   1.785   3.652   3.901
10363SOL     OW41767   3.555   5.662   4.081
10363SOL    HW141768   3.503   5.712   4.011
10363SOL    HW241769   3.511   5.674   4.170
10364SOL     OW41770   4.156   4.699   2.193
10364SOL    HW141771   4.210   4.627   2.238
10364SOL    HW241772   4.204   4.727   2.110
10365SOL     OW41773   0.013   5.669   2.073
10365SOL    HW141774   9.949   5.690   1.999
10365SOL    HW241775   0.093   5.728   2.066
10366SOL     OW41776   1.324   5.475   2.679
10366SOL    HW141777   1.254   5.483   2.608
10366SOL    HW241778   1.296   5.407   2.747
10367SOL     OW41779   5.588   1.462   2.171
10367SOL    HW141780   5.501   1.414   2.164
10367SOL    HW241781   5.639   1.454   2.085
10368SOL     OW41782   2.508   3.432   3.729
10368SOL    HW141783   2.495   3.525   3.762
10368SOL    HW241784   2.419   3.392   3.706
10369SOL     OW41785   3.213   7.775   2.398
10369SOL    HW141786   3.213   7.675   2.393
10369SOL    HW241787   3.125   7.809   2.365
10370SOL     OW41788   8.779   0.226   0.154
10370SOL    HW141789   8.747   0.139   0.192
10370SOL    HW241790   8.725   0.248   0.072
10371SOL     OW41791   3.290   4.276   3.945
10371SOL    HW141792   3.235   4.223   3.882
10371SOL    HW241793   3.328   4.216   4.016
10372SOL     OW41794   8.375   6.063   3.242
10372SOL    HW141795   8.327   6.139   3.200
10372SOL    HW241796   8.457   6.042   3.189
10373SOL     OW41797   1.050   2.993   2.076
10373SOL    HW141798   1.000   2.910   2.054
10373SOL    HW241799   1.083   2.988   2.170
10374SOL     OW41800   2.057   1.297   2.710
10374SOL    HW141801   2.118   1.229   2.751
10374SOL    HW241802   2.008   1.256   2.633
10375SOL     OW41803   3.285   1.713   3.287
10375SOL    HW141804   3.322   1.794   3.242
10375SOL    HW241805   3.202   1.739   3.338
10376SOL     OW41806   1.776   5.956   1.297
10376SOL    HW141807   1.719   5.926   1.221
10376SOL    HW241808   1.771   5.889   1.371
10377SOL     OW41809   9.049   2.341   1.791
10377SOL    HW141810   9.131   2.336   1.733
10377SOL    HW241811   8.969   2.311   1.738
10378SOL     OW41812   0.015   4.969   0.950
10378SOL    HW141813   9.953   4.921   1.012
10378SOL    HW241814   0.026   4.916   0.866
10379SOL     OW41815   2.571   3.750   4.282
10379SOL    HW141816   2.649   3.790   4.234
10379SOL    HW241817   2.573   3.650   4.272
10380SOL     OW41818   0.216   5.421   2.594
10380SOL    HW141819   0.260   5.491   2.538
10380SOL    HW241820   0.270   5.405   2.676
10381SOL     OW41821   1.176   6.918   0.921
10381SOL    HW141822   1.129   6.916   0.833
10381SOL    HW241823   1.268   6.880   0.910
10382SOL     OW41824   0.613   9.802   1.650
10382SOL    HW141825   0.573   9.866   1.716
10382SOL    HW241826   0.706   9.831   1.627
10383SOL     OW41827   1.347   9.473   3.961
10383SOL    HW141828   1.388   9.447   4.049
10383SOL    HW241829   1.419   9.490   3.894
10384SOL     OW41830   2.129   8.998   3.989
10384SOL    HW141831   2.225   8.976   3.970
10384SOL    HW241832   2.077   8.913   3.997
10385SOL     OW41833   6.737   8.735   4.371
10385SOL    HW141834   6.643   8.744   4.339
10385SOL    HW241835   6.786   8.821   4.356
10386SOL     OW41836   8.681   5.474   2.404
10386SOL    HW141837   8.659   5.511   2.314
10386SOL    HW241838   8.697   5.376   2.397
10387SOL     OW41839   3.742   8.883   2.137
10387SOL    HW141840   3.824   8.919   2.094
10387SOL    HW241841   3.757   8.787   2.163
10388SOL     OW41842   4.361   6.902   1.405
10388SOL    HW141843   4.274   6.887   1.451
10388SOL    HW241844   4.371   6.838   1.329
10389SOL     OW41845   0.073   6.502   3.303
10389SOL    HW141846   0.058   6.598   3.281
10389SOL    HW241847   0.061   6.447   3.220
10390SOL     OW41848   0.535   4.634   3.766
10390SOL    HW141849   0.536   4.613   3.864
10390SOL    HW241850   0.614   4.592   3.722
10391SOL     OW41851   0.003   0.224   2.073
10391SOL    HW141852   0.083   0.175   2.039
10391SOL    HW241853   9.965   0.280   1.999
10392SOL     OW41854   1.878   2.873   1.347
10392SOL    HW141855   1.875   2.961   1.395
10392SOL    HW241856   1.972   2.838   1.349
10393SOL     OW41857   3.369   2.329   4.212
10393SOL    HW141858   3.328   2.241   4.237
10393SOL    HW241859   3.462   2.315   4.179
10394SOL     OW41860   0.815  10.000   3.959
10394SOL    HW141861   0.830   9.901   3.968
10394SOL    HW241862   0.884   0.049   4.012
10395SOL     OW41863   9.177   6.267   1.761
10395SOL    HW141864   9.093   6.218   1.737
10395SOL    HW241865   9.243   6.258   1.686
10396SOL     OW41866   4.410   2.794   1.201
10396SOL    HW141867   4.469   2.822   1.125
10396SOL    HW241868   4.435   2.845   1.283
10397SOL     OW41869   0.900   7.066   3.258
10397SOL    HW141870   0.882   7.164   3.252
10397SOL    HW241871   0.822   7.015   3.223
10398SOL     OW41872   4.639   0.713   3.622
10398SOL    HW141873   4.549   0.675   3.639
10398SOL    HW241874   4.659   0.710   3.524
10399SOL     OW41875   3.119   0.997   2.975
10399SOL    HW141876   3.167   1.005   3.062
10399SOL    HW241877   3.178   0.951   2.909
10400SOL     OW41878   2.355   5.247   1.650
10400SOL    HW141879   2.369   5.166   1.708
10400SOL    HW241880   2.416   5.242   1.571
10401SOL     OW41881   0.007   3.916   1.514
10401SOL    HW141882   9.928   3.875   1.469
10401SOL    HW241883   0.087   3.858   1.502
10402SOL     OW41884   7.664   9.918   3.299
10402SOL    HW141885   7.750   9.956   3.334
10402SOL    HW241886   7.634   9.971   3.220
10403SOL     OW41887   8.858   5.709   1.948
10403SOL    HW141888   8.869   5.756   2.036
10403SOL    HW241889   8.856   5.610   1.962
10404SOL     OW41890   7.610   9.613   4.389
10404SOL    HW141891   7.691   9.560   4.364
10404SOL    HW241892   7.630   9.711   4.378
10405SOL     OW41893   6.652   9.469   3.755
10405SOL    HW141894   6.559   9.494   3.781
10405SOL    HW241895   6.653   9.433   3.662
10406SOL     OW41896   4.516   4.279   0.134
10406SOL    HW141897   4.519   4.367   0.086
10406SOL    HW241898   4.608   4.243   0.144
10407SOL     OW41899   9.476   4.704   3.950
10407SOL    HW141900   9.403   4.743   4.005
10407SOL    HW241901   9.550   4.672   4.009
10408SOL     OW41902   0.944   2.748   1.985
10408SOL    HW141903   1.041   2.729   1.964
10408SOL    HW241904   0.908   2.676   2.044
10409SOL     OW41905   8.541   7.247   1.476
10409SOL    HW141906   8.514   7.271   1.569
10409SOL    HW241907   8.537   7.148   1.464
10410SOL     OW41908   4.200   5.664   2.123
10410SOL    HW141909   4.193   5.583   2.180
10410SOL    HW241910   4.174   5.641   2.029
10411SOL     OW41911   4.128   8.045   1.786
10411SOL    HW141912   4.060   7.999   1.844
10411SOL    HW241913   4.220   8.022   1.819
10412SOL     OW41914   1.361   5.055   2.253
10412SOL    HW141915   1.436   5.115   2.279
10412SOL    HW241916   1.344   4.990   2.327
10413SOL     OW41917   4.935   8.813   0.126
10413SOL    HW141918   4.999   8.752   0.172
10413SOL    HW241919   4.866   8.846   0.191
10414SOL     OW41920   2.299   1.084   4.347
10414SOL    HW141921   2.232   1.156   4.365
10414SOL    HW241922   2.353   1.067   4.429
10415SOL     OW41923   0.161   7.354   4.088
10415SOL    HW141924   0.259   7.338   4.094
10415SOL    HW241925   0.143   7.452   4.092
10416SOL     OW41926   4.330   1.483   3.276
10416SOL    HW141927   4.392   1.444   3.344
10416SOL    HW241928   4.270   1.410   3.240
10417SOL     OW41929   9.373   3.330   0.758
10417SOL    HW141930   9.284   3.293   0.785
10417SOL    HW241931   9.371   3.430   0.762
10418SOL     OW41932   9.195   2.206   0.198
10418SOL    HW141933   9.131   2.170   0.131
10418SOL    HW241934   9.285   2.217   0.156
10419SOL     OW41935   8.139   0.314   2.223
10419SOL    HW141936   8.157   0.389   2.286
10419SOL    HW241937   8.225   0.278   2.187
10420SOL     OW41938   8.046   4.632   0.367
10420SOL    HW141939   8.066   4.540   0.334
10420SOL    HW241940   8.131   4.685   0.370
10421SOL     OW41941   3.029   7.536   1.382
10421SOL    HW141942   3.039   7.491   1.294
10421SOL    HW241943   3.064   7.476   1.454
10422SOL     OW41944   1.423   9.008   1.879
10422SOL    HW141945   1.440   9.106   1.880
10422SOL    HW241946   1.501   8.961   1.837
10423SOL     OW41947   5.053   6.614   2.095
10423SOL    HW141948   5.101   6.664   2.167
10423SOL    HW241949   4.969   6.663   2.072
10424SOL     OW41950   3.587   4.204   2.105
10424SOL    HW141951   3.595   4.156   2.192
10424SOL    HW241952   3.495   4.241   2.095
10425SOL     OW41953   2.436   1.803   3.545
10425SOL    HW141954   2.456   1.737   3.617
10425SOL    HW241955   2.376   1.761   3.477
10426SOL     OW41956   0.143   7.887   0.913
10426SOL    HW141957   0.100   7.932   0.835
10426SOL    HW241958   0.139   7.948   0.992
10427SOL     OW41959   8.714   0.557   4.179
10427SOL    HW141960   8.728   0.592   4.086
10427SOL    HW241961   8.625   0.588   4.213
10428SOL     OW41962   9.723   6.638   3.225
10428SOL    HW141963   9.666   6.658   3.305
10428SOL    HW241964   9.682   6.564   3.173
10429SOL     OW41965   9.133   4.259   0.150
10429SOL    HW141966   9.130   4.164   0.119
10429SOL    HW241967   9.213   4.272   0.209
10430SOL     OW41968   2.277   0.980   1.505
10430SOL    HW141969   2.292   0.978   1.406
10430SOL    HW241970   2.351   0.931   1.551
10431SOL     OW41971   3.261   4.683   0.623
10431SOL    HW141972   3.198   4.694   0.699
10431SOL    HW241973   3.209   4.670   0.538
10432SOL     OW41974   2.291   5.495   4.319
10432SOL    HW141975   2.216   5.429   4.326
10432SOL    HW241976   2.256   5.583   4.289
10433SOL     OW41977   7.078   1.026   4.280
10433SOL    HW141978   7.095   1.057   4.186
10433SOL    HW241979   7.067   0.927   4.281
10434SOL     OW41980   4.277   1.127   0.567
10434SOL    HW141981   4.371   1.160   0.564
10434SOL    HW241982   4.246   1.107   0.474
10435SOL     OW41983   6.108   0.723   2.906
10435SOL    HW141984   6.034   0.783   2.877
10435SOL    HW241985   6.092   0.693   3.000
10436SOL     OW41986   3.942   3.702   2.462
10436SOL    HW141987   3.946   3.631   2.531
10436SOL    HW241988   3.899   3.784   2.500
10437SOL     OW41989   1.759   9.109   0.360
10437SOL    HW141990   1.702   9.052   0.301
10437SOL    HW241991   1.783   9.058   0.443
10438SOL     OW41992   7.510   8.577   2.267
10438SOL    HW141993   7.442   8.600   2.336
10438SOL    HW241994   7.591   8.538   2.311
10439SOL     OW41995   4.165   0.292   0.873
10439SOL    HW141996   4.222   0.373   0.857
10439SOL    HW241997   4.072   0.321   0.896
10440SOL     OW41998   9.241   3.127   4.261
10440SOL    HW141999   9.200   3.099   4.175
10440SOL    HW242000   9.330   3.083   4.272
10441SOL     OW42001   8.767   1.739   1.607
10441SOL    HW142002   8.826   1.788   1.671
10441SOL    HW242003   8.702   1.803   1.566
10442SOL     OW42004   2.289   8.480   3.134
10442SOL    HW142005   2.272   8.568   3.089
10442SOL    HW242006   2.206   8.450   3.181
10443SOL     OW42007   1.805   5.454   0.953
10443SOL    HW142008   1.879   5.414   1.008
10443SOL    HW242009   1.726   5.472   1.011
10444SOL     OW42010   4.617   2.855   0.737
10444SOL    HW142011   4.686   2.789   0.706
10444SOL    HW242012   4.572   2.896   0.658
10445SOL     OW42013   4.552   8.949   1.189
10445SOL    HW142014   4.625   8.972   1.124
10445SOL    HW242015   4.586   8.879   1.252
10446SOL     OW42016   0.526   2.308   3.171
10446SOL    HW142017   0.528   2.212   3.143
10446SOL    HW242018   0.505   2.313   3.269
10447SOL     OW42019   8.478   8.398   1.640
10447SOL    HW142020   8.516   8.313   1.675
10447SOL    HW242021   8.507   8.411   1.545
10448SOL     OW42022   2.637   5.355   0.263
10448SOL    HW142023   2.635   5.446   0.305
10448SOL    HW242024   2.729   5.336   0.228
10449SOL     OW42025   0.224   3.028   3.869
10449SOL    HW142026   0.310   2.979   3.851
10449SOL    HW242027   0.154   2.962   3.898
10450SOL     OW42028   6.930   9.305   3.458
10450SOL    HW142029   7.008   9.336   3.404
10450SOL    HW242030   6.955   9.224   3.510
10451SOL     OW42031   2.365   6.608   4.011
10451SOL    HW142032   2.322   6.693   3.980
10451SOL    HW242033   2.344   6.593   4.107
10452SOL     OW42034   8.195   0.384   2.673
10452SOL    HW142035   8.118   0.320   2.671
10452SOL    HW242036   8.180   0.451   2.746
10453SOL     OW42037   3.795   9.606   0.305
10453SOL    HW142038   3.875   9.566   0.259
10453SOL    HW242039   3.728   9.634   0.236
10454SOL     OW42040   6.088   7.862   2.040
10454SOL    HW142041   6.135   7.792   2.093
10454SOL    HW242042   6.102   7.845   1.942
10455SOL     OW42043   5.970   7.667   3.695
10455SOL    HW142044   6.014   7.701   3.778
10455SOL    HW242045   5.954   7.743   3.632
10456SOL     OW42046   0.994   7.148   1.531
10456SOL    HW142047   1.025   7.196   1.448
10456SOL    HW242048   0.938   7.210   1.586
10457SOL     OW42049   8.465   8.418   2.313
10457SOL    HW142050   8.484   8.463   2.226
10457SOL    HW242051   8.529   8.342   2.326
10458SOL     OW42052   5.161   2.606   0.806
10458SOL    HW142053   5.210   2.651   0.732
10458SOL    HW242054   5.137   2.513   0.778
10459SOL     OW42055   2.992   1.158   0.727
10459SOL    HW142056   2.977   1.087   0.795
10459SOL    HW242057   2.932   1.236   0.747
10460SOL     OW42058   0.992   3.199   0.516
10460SOL    HW142059   0.951   3.268   0.457
10460SOL    HW242060   0.921   3.133   0.544
10461SOL     OW42061   7.700   9.575   2.327
10461SOL    HW142062   7.779   9.611   2.277
10461SOL    HW242063   7.732   9.528   2.409
10462SOL     OW42064   8.277   0.197   0.933
10462SOL    HW142065   8.368   0.192   0.891
10462SOL    HW242066   8.260   0.114   0.987
10463SOL     OW42067   7.556   3.693   1.270
10463SOL    HW142068   7.577   3.700   1.367
10463SOL    HW242069   7.466   3.732   1.252
10464SOL     OW42070   3.269   1.478   1.108
10464SOL    HW142071   3.246   1.542   1.182
10464SOL    HW242072   3.203   1.403   1.108
10465SOL     OW42073   7.907   5.490   4.220
10465SOL    HW142074   7.874   5.582   4.241
10465SOL    HW242075   7.980   5.465   4.284
10466SOL     OW42076   7.832   8.975   0.474
10466SOL    HW142077   7.777   9.034   0.415
10466SOL    HW242078   7.785   8.963   0.562
10467SOL     OW42079   1.623   4.574   0.388
10467SOL    HW142080   1.546   4.620   0.344
10467SOL    HW242081   1.590   4.496   0.441
10468SOL     OW42082   2.801   2.291   1.635
10468SOL    HW142083   2.898   2.267   1.637
10468SOL    HW242084   2.759   2.268   1.723
10469SOL     OW42085   2.045   9.227   3.863
10469SOL    HW142086   2.105   9.301   3.895
10469SOL    HW242087   2.070   9.142   3.908
10470SOL     OW42088   0.153   9.334   3.395
10470SOL    HW142089   0.125   9.279   3.473
10470SOL    HW242090   0.198   9.418   3.427
10471SOL     OW42091   6.120   6.401   3.576
10471SOL    HW142092   6.029   6.432   3.604
10471SOL    HW242093   6.121   6.301   3.572
10472SOL     OW42094   9.546   6.462   1.651
10472SOL    HW142095   9.637   6.497   1.630
10472SOL    HW242096   9.532   6.464   1.750
10473SOL     OW42097   8.831   7.164   0.776
10473SOL    HW142098   8.759   7.095   0.779
10473SOL    HW242099   8.914   7.123   0.735
10474SOL     OW42100   6.119   8.718   2.755
10474SOL    HW142101   6.045   8.705   2.689
10474SOL    HW242102   6.203   8.677   2.719
10475SOL     OW42103   9.452   9.840   4.116
10475SOL    HW142104   9.441   9.845   4.017
10475SOL    HW242105   9.514   9.765   4.139
10476SOL     OW42106   5.029   8.110   1.334
10476SOL    HW142107   5.000   8.044   1.265
10476SOL    HW242108   5.017   8.072   1.425
10477SOL     OW42109   4.207   7.589   1.436
10477SOL    HW142110   4.283   7.603   1.373
10477SOL    HW242111   4.151   7.513   1.404
10478SOL     OW42112   4.084   2.895   4.366
10478SOL    HW142113   4.015   2.828   4.338
10478SOL    HW242114   4.101   2.887   4.464
10479SOL     OW42115   1.791   3.738   2.193
10479SOL    HW142116   1.832   3.661   2.241
10479SOL    HW242117   1.773   3.713   2.098
10480SOL     OW42118   3.044   2.129   2.146
10480SOL    HW142119   3.071   2.035   2.122
10480SOL    HW242120   3.090   2.193   2.086
10481SOL     OW42121   3.213   2.756   1.885
10481SOL    HW142122   3.150   2.783   1.812
10481SOL    HW242123   3.163   2.707   1.956
10482SOL     OW42124   0.951   5.274   2.491
10482SOL    HW142125   0.964   5.174   2.495
10482SOL    HW242126   0.918   5.299   2.400
10483SOL     OW42127   8.147   9.513   0.362
10483SOL    HW142128   8.055   9.541   0.335
10483SOL    HW242129   8.174   9.432   0.310
10484SOL     OW42130   4.242   4.760   0.570
10484SOL    HW142131   4.216   4.723   0.659
10484SOL    HW242132   4.293   4.691   0.518
10485SOL     OW42133   2.351   2.794   4.280
10485SOL    HW142134   2.296   2.875   4.259
10485SOL    HW242135   2.298   2.732   4.338
10486SOL     OW42136   5.735   9.110   2.260
10486SOL    HW142137   5.738   9.196   2.312
10486SOL    HW242138   5.757   9.034   2.321
10487SOL     OW42139   9.759   8.417   3.221
10487SOL    HW142140   9.811   8.382   3.143
10487SOL    HW242141   9.671   8.453   3.189
10488SOL     OW42142   9.318   7.877   1.033
10488SOL    HW142143   9.264   7.958   1.010
10488SOL    HW242144   9.397   7.872   0.972
10489SOL     OW42145   9.529   3.899   3.542
10489SOL    HW142146   9.589   3.827   3.579
10489SOL    HW242147   9.437   3.886   3.577
10490SOL     OW42148   0.287   0.659   1.257
10490SOL    HW142149   0.269   0.704   1.344
10490SOL    HW242150   0.228   0.579   1.247
10491SOL     OW42151   3.854   6.142   2.717
10491SOL    HW142152   3.927   6.090   2.761
10491SOL    HW242153   3.829   6.220   2.775
10492SOL     OW42154   4.308   4.138   0.033
10492SOL    HW142155   4.382   4.192   0.073
10492SOL    HW242156   4.339   4.096   5.582
10493SOL     OW42157   8.161   4.001   4.211
10493SOL    HW142158   8.090   4.066   4.238
10493SOL    HW242159   8.251   4.040   4.229
10494SOL     OW42160   5.518   0.849   2.681
10494SOL    HW142161   5.430   0.846   2.730
10494SOL    HW242162   5.541   0.757   2.649
10495SOL     OW42163   8.895   0.632   2.073
10495SOL    HW142164   8.833   0.589   2.006
10495SOL    HW242165   8.854   0.627   2.164
10496SOL     OW42166   6.352   0.483   0.145
10496SOL    HW142167   6.339   0.570   0.192
10496SOL    HW242168   6.269   0.459   0.095
10497SOL     OW42169   8.908   8.889   1.105
10497SOL    HW142170   8.909   8.892   1.005
10497SOL    HW242171   8.858   8.967   1.141
10498SOL     OW42172   1.212   5.813   1.024
10498SOL    HW142173   1.273   5.835   0.947
10498SOL    HW242174   1.218   5.885   1.093
10499SOL     OW42175   0.930   2.567   3.159
10499SOL    HW142176   0.970   2.509   3.230
10499SOL    HW242177   0.855   2.518   3.115
10500SOL     OW42178   9.569   6.782   2.437
10500SOL    HW142179   9.590   6.826   2.350
10500SOL    HW242180   9.487   6.725   2.427
10501SOL     OW42181   4.746   7.170   2.806
10501SOL    HW142182   4.801   7.217   2.737
10501SOL    HW242183   4.679   7.111   2.762
10502SOL     OW42184   4.180   5.869   2.308
10502SOL    HW142185   4.181   5.792   2.243
10502SOL    HW242186   4.263   5.924   2.294
10503SOL     OW42187   9.402   1.358   4.262
10503SOL    HW142188   9.304   1.366   4.285
10503SOL    HW242189   9.411   1.321   4.170
10504SOL     OW42190   3.504   9.872   2.065
10504SOL    HW142191   3.565   9.820   2.124
10504SOL    HW242192   3.530   9.859   1.970
10505SOL     OW42193   5.477   9.013   2.224
10505SOL    HW142194   5.572   9.043   2.226
10505SOL    HW242195   5.416   9.091   2.236
10506SOL     OW42196   3.124   9.016   0.149
10506SOL    HW142197   3.179   9.100   0.140
10506SOL    HW242198   3.171   8.952   0.209
10507SOL     OW42199   1.340   3.414   0.807
10507SOL    HW142200   1.263   3.355   0.782
10507SOL    HW242201   1.368   3.468   0.727
10508SOL     OW42202   4.501   3.921   1.831
10508SOL    HW142203   4.480   3.959   1.741
10508SOL    HW242204   4.445   3.840   1.847
10509SOL     OW42205   9.410   4.092   1.458
10509SOL    HW142206   9.472   4.128   1.387
10509SOL    HW242207   9.375   4.168   1.513
10510SOL     OW42208   9.031   7.754   0.102
10510SOL    HW142209   9.078   7.714   0.023
10510SOL    HW242210   9.096   7.764   0.177
10511SOL     OW42211   9.324   4.509   2.209
10511SOL    HW142212   9.275   4.524   2.123
10511SOL    HW242213   9.260   4.480   2.280
10512SOL     OW42214   0.131   8.708   1.424
10512SOL    HW142215   0.039   8.743   1.441
10512SOL    HW242216   0.127   8.629   1.362
10513SOL     OW42217   8.482   5.741   3.240
10513SOL    HW142218   8.489   5.642   3.222
10513SOL    HW242219   8.415   5.756   3.313
10514SOL     OW42220   9.250   8.910   0.766
10514SOL    HW142221   9.235   8.993   0.713
10514SOL    HW242222   9.341   8.915   0.810
10515SOL     OW42223   0.228   1.885   1.246
10515SOL    HW142224   0.146   1.831   1.227
10515SOL    HW242225   0.295   1.829   1.295
10516SOL     OW42226   7.118   0.522   3.266
10516SOL    HW142227   7.150   0.492   3.356
10516SOL    HW242228   7.194   0.562   3.215
10517SOL     OW42229   2.760   8.846   1.702
10517SOL    HW142230   2.801   8.849   1.793
10517SOL    HW242231   2.831   8.859   1.633
10518SOL     OW42232   0.828   3.501   3.680
10518SOL    HW142233   0.742   3.452   3.662
10518SOL    HW242234   0.845   3.503   3.778
10519SOL     OW42235   8.607   4.726   0.659
10519SOL    HW142236   8.526   4.688   0.615
10519SOL    HW242237   8.677   4.744   0.591
10520SOL     OW42238   7.110   7.652   2.850
10520SOL    HW142239   7.086   7.747   2.870
10520SOL    HW242240   7.129   7.604   2.935
10521SOL     OW42241   3.080   4.355   2.219
10521SOL    HW142242   3.074   4.257   2.238
10521SOL    HW242243   3.096   4.405   2.304
10522SOL     OW42244   3.583   4.234   3.335
10522SOL    HW142245   3.619   4.145   3.309
10522SOL    HW242246   3.613   4.255   3.428
10523SOL     OW42247   0.478   4.228   1.059
10523SOL    HW142248   0.510   4.144   1.104
10523SOL    HW242249   0.461   4.299   1.128
10524SOL     OW42250   7.308   0.544   0.136
10524SOL    HW142251   7.311   0.466   0.074
10524SOL    HW242252   7.213   0.561   0.163
10525SOL     OW42253   3.797   1.714   4.195
10525SOL    HW142254   3.759   1.622   4.182
10525SOL    HW242255   3.795   1.764   4.109
10526SOL     OW42256   2.389   8.137   0.723
10526SOL    HW142257   2.416   8.043   0.741
10526SOL    HW242258   2.464   8.186   0.679
10527SOL     OW42259   5.209   7.712   2.321
10527SOL    HW142260   5.243   7.659   2.243
10527SOL    HW242261   5.125   7.669   2.356
10528SOL     OW42262   0.260   5.335   1.061
10528SOL    HW142263   0.264   5.241   1.027
10528SOL    HW242264   0.302   5.396   0.994
10529SOL     OW42265   2.829   1.290   4.083
10529SOL    HW142266   2.848   1.312   3.988
10529SOL    HW242267   2.812   1.374   4.135
10530SOL     OW42268   4.761   2.053   0.135
10530SOL    HW142269   4.771   1.983   0.207
10530SOL    HW242270   4.681   2.032   0.080
10531SOL     OW42271   0.852   1.290   1.121
10531SOL    HW142272   0.756   1.314   1.111
10531SOL    HW242273   0.908   1.349   1.064
10532SOL     OW42274   2.271   3.702   3.007
10532SOL    HW142275   2.275   3.756   3.092
10532SOL    HW242276   2.254   3.764   2.930
10533SOL     OW42277   1.682   1.460   3.057
10533SOL    HW142278   1.584   1.437   3.056
10533SOL    HW242279   1.731   1.398   2.996
10534SOL     OW42280   2.869   7.577   3.155
10534SOL    HW142281   2.912   7.555   3.068
10534SOL    HW242282   2.809   7.502   3.183
10535SOL     OW42283   3.352   2.340   2.313
10535SOL    HW142284   3.380   2.385   2.228
10535SOL    HW242285   3.253   2.347   2.324
10536SOL     OW42286   3.403   6.647   3.017
10536SOL    HW142287   3.317   6.609   3.051
10536SOL    HW242288   3.412   6.627   2.920
10537SOL     OW42289   0.884   2.873   0.302
10537SOL    HW142290   0.813   2.931   0.341
10537SOL    HW242291   0.851   2.835   0.215
10538SOL     OW42292   2.982   8.484   2.165
10538SOL    HW142293   2.933   8.440   2.090
10538SOL    HW242294   2.915   8.522   2.230
10539SOL     OW42295   8.813   4.064   1.544
10539SOL    HW142296   8.815   4.156   1.506
10539SOL    HW242297   8.718   4.032   1.550
10540SOL     OW42298   7.884   7.372   1.403
10540SOL    HW142299   7.791   7.358   1.435
10540SOL    HW242300   7.901   7.470   1.390
10541SOL     OW42301   8.872   9.995   2.509
10541SOL    HW142302   8.803   9.946   2.561
10541SOL    HW242303   8.939   9.930   2.472
10542SOL     OW42304   4.488   3.160   3.172
10542SOL    HW142305   4.484   3.236   3.107
10542SOL    HW242306   4.581   3.122   3.172
10543SOL     OW42307   1.549   3.814   0.258
10543SOL    HW142308   1.531   3.869   0.339
10543SOL    HW242309   1.620   3.858   0.203
10544SOL     OW42310   7.585   1.737   3.015
10544SOL    HW142311   7.509   1.750   2.952
10544SOL    HW242312   7.629   1.825   3.035
10545SOL     OW42313   2.086   0.546   0.460
10545SOL    HW142314   2.171   0.540   0.511
10545SOL    HW242315   2.041   0.633   0.481
10546SOL     OW42316   2.493   2.742   2.797
10546SOL    HW142317   2.491   2.750   2.896
10546SOL    HW242318   2.583   2.771   2.763
10547SOL     OW42319   7.347   9.529   4.379
10547SOL    HW142320   7.438   9.567   4.398
10547SOL    HW242321   7.354   9.464   4.303
10548SOL     OW42322   2.852   7.625   0.430
10548SOL    HW142323   2.788   7.625   0.507
10548SOL    HW242324   2.945   7.641   0.464
10549SOL     OW42325   8.076   1.681   3.331
10549SOL    HW142326   8.050   1.585   3.331
10549SOL    HW242327   8.037   1.727   3.252
10550SOL     OW42328   1.706   1.607   0.515
10550SOL    HW142329   1.754   1.685   0.555
10550SOL    HW242330   1.771   1.535   0.493
10551SOL     OW42331   1.944   0.170   1.180
10551SOL    HW142332   2.004   0.142   1.105
10551SOL    HW242333   1.871   0.228   1.145
10552SOL     OW42334   3.181   6.503   1.190
10552SOL    HW142335   3.179   6.587   1.136
10552SOL    HW242336   3.265   6.500   1.245
10553SOL     OW42337   8.072   3.831   0.731
10553SOL    HW142338   8.149   3.819   0.667
10553SOL    HW242339   8.085   3.915   0.783
10554SOL     OW42340   0.690   8.842   1.114
10554SOL    HW142341   0.725   8.767   1.057
10554SOL    HW242342   0.671   8.922   1.057
10555SOL     OW42343   4.009   6.815   2.939
10555SOL    HW142344   4.043   6.892   2.993
10555SOL    HW242345   4.082   6.746   2.930
10556SOL     OW42346   0.375   3.038   4.198
10556SOL    HW142347   0.355   3.115   4.137
10556SOL    HW242348   0.460   2.993   4.170
10557SOL     OW42349   2.512   2.285   0.564
10557SOL    HW142350   2.454   2.341   0.623
10557SOL    HW242351   2.549   2.208   0.617
10558SOL     OW42352   1.413   7.036   2.829
10558SOL    HW142353   1.346   7.108   2.813
10558SOL    HW242354   1.386   6.953   2.781
10559SOL     OW42355   3.816   4.867   1.841
10559SOL    HW142356   3.893   4.838   1.784
10559SOL    HW242357   3.731   4.857   1.790
10560SOL     OW42358   9.058   9.088   0.516
10560SOL    HW142359   9.121   9.137   0.576
10560SOL    HW242360   9.072   9.119   0.422
10561SOL     OW42361   3.149   8.222   3.372
10561SOL    HW142362   3.215   8.160   3.415
10561SOL    HW242363   3.057   8.196   3.399
10562SOL     OW42364   0.431   5.665   1.459
10562SOL    HW142365   0.528   5.689   1.456
10562SOL    HW242366   0.388   5.691   1.372
10563SOL     OW42367   0.115   5.896   1.778
10563SOL    HW142368   0.092   5.992   1.798
10563SOL    HW242369   0.040   5.854   1.726
10564SOL     OW42370   8.455   5.906   4.207
10564SOL    HW142371   8.385   5.936   4.142
10564SOL    HW242372   8.510   5.985   4.235
10565SOL     OW42373   9.778   2.207   2.128
10565SOL    HW142374   9.846   2.146   2.086
10565SOL    HW242375   9.726   2.253   2.056
10566SOL     OW42376   3.512   6.178   2.609
10566SOL    HW142377   3.415   6.187   2.588
10566SOL    HW242378   3.564   6.180   2.523
10567SOL     OW42379   2.779   2.311   1.360
10567SOL    HW142380   2.786   2.291   1.457
10567SOL    HW242381   2.683   2.320   1.334
10568SOL     OW42382   2.838   7.936   0.575
10568SOL    HW142383   2.920   7.966   0.527
10568SOL    HW242384   2.775   7.893   0.510
10569SOL     OW42385   8.330   3.004   2.699
10569SOL    HW142386   8.326   3.086   2.642
10569SOL    HW242387   8.382   2.933   2.650
10570SOL     OW42388   6.510   1.498   2.492
10570SOL    HW142389   6.593   1.465   2.536
10570SOL    HW242390   6.475   1.428   2.430
10571SOL     OW42391   6.272   0.697   1.038
10571SOL    HW142392   6.226   0.741   1.115
10571SOL    HW242393   6.337   0.762   0.998
10572SOL     OW42394   0.976   9.819   0.912
10572SOL    HW142395   1.059   9.828   0.857
10572SOL    HW242396   0.952   9.723   0.921
10573SOL     OW42397   9.588   2.323   3.463
10573SOL    HW142398   9.619   2.370   3.380
10573SOL    HW242399   9.610   2.226   3.457
10574SOL     OW42400   3.137   3.003   0.117
10574SOL    HW142401   3.114   2.955   0.201
10574SOL    HW242402   3.182   2.940   0.054
10575SOL     OW42403   2.079   8.206   1.464
10575SOL    HW142404   2.174   8.234   1.446
10575SOL    HW242405   2.028   8.203   1.379
10576SOL     OW42406   1.353   6.242   1.596
10576SOL    HW142407   1.329   6.311   1.529
10576SOL    HW242408   1.301   6.258   1.680
10577SOL     OW42409   9.772   1.309   3.301
10577SOL    HW142410   9.693   1.268   3.346
10577SOL    HW242411   9.842   1.240   3.285
10578SOL     OW42412   3.675   8.575   3.015
10578SOL    HW142413   3.632   8.647   3.069
10578SOL    HW242414   3.774   8.589   3.014
10579SOL     OW42415   5.362   9.260   1.620
10579SOL    HW142416   5.418   9.269   1.537
10579SOL    HW242417   5.349   9.350   1.661
10580SOL     OW42418   7.566   3.383   0.481
10580SOL    HW142419   7.574   3.412   0.577
10580SOL    HW242420   7.521   3.294   0.477
10581SOL     OW42421   4.479   9.329   3.376
10581SOL    HW142422   4.406   9.385   3.415
10581SOL    HW242423   4.555   9.323   3.440
10582SOL     OW42424   6.383   0.338   2.062
10582SOL    HW142425   6.310   0.358   1.998
10582SOL    HW242426   6.470   0.332   2.013
10583SOL     OW42427   8.583   5.316   2.779
10583SOL    HW142428   8.679   5.343   2.777
10583SOL    HW242429   8.527   5.394   2.808
10584SOL     OW42430   9.166   1.954   1.853
10584SOL    HW142431   9.165   1.984   1.948
10584SOL    HW242432   9.073   1.953   1.816
10585SOL     OW42433   0.912   1.682   3.226
10585SOL    HW142434   0.883   1.593   3.190
10585SOL    HW242435   1.012   1.687   3.227
10586SOL     OW42436   2.545   7.270   2.813
10586SOL    HW142437   2.527   7.171   2.812
10586SOL    HW242438   2.617   7.289   2.881
10587SOL     OW42439   9.060   7.747   1.799
10587SOL    HW142440   8.996   7.670   1.796
10587SOL    HW242441   9.133   7.732   1.732
10588SOL     OW42442   0.887   8.210   3.548
10588SOL    HW142443   0.955   8.240   3.616
10588SOL    HW242444   0.864   8.114   3.563
10589SOL     OW42445   9.600   8.609   3.599
10589SOL    HW142446   9.631   8.699   3.626
10589SOL    HW242447   9.519   8.584   3.652
10590SOL     OW42448   0.234   0.098   1.988
10590SOL    HW142449   0.309   0.058   2.040
10590SOL    HW242450   0.194   0.028   1.928
10591SOL     OW42451   2.428   9.604   0.351
10591SOL    HW142452   2.459   9.680   0.294
10591SOL    HW242453   2.329   9.603   0.356
10592SOL     OW42454   3.535   4.289   4.267
10592SOL    HW142455   3.631   4.267   4.248
10592SOL    HW242456   3.523   4.389   4.266
10593SOL     OW42457   5.306   8.081   3.140
10593SOL    HW142458   5.323   8.169   3.184
10593SOL    HW242459   5.214   8.081   3.100
10594SOL     OW42460   5.779   9.991   1.553
10594SOL    HW142461   5.808   9.969   1.646
10594SOL    HW242462   5.853   0.041   1.506
10595SOL     OW42463   3.851   9.144   3.993
10595SOL    HW142464   3.752   9.150   3.993
10595SOL    HW242465   3.888   9.212   4.057
10596SOL     OW42466   5.796   1.331   2.293
10596SOL    HW142467   5.720   1.385   2.258
10596SOL    HW242468   5.765   1.238   2.312
10597SOL     OW42469   1.851   5.262   1.826
10597SOL    HW142470   1.775   5.212   1.783
10597SOL    HW242471   1.933   5.253   1.770
10598SOL     OW42472   7.430   2.793   0.740
10598SOL    HW142473   7.463   2.798   0.834
10598SOL    HW242474   7.361   2.721   0.733
10599SOL     OW42475   8.778   8.028   0.186
10599SOL    HW142476   8.797   7.962   0.113
10599SOL    HW242477   8.709   8.093   0.155
10600SOL     OW42478   3.113   4.804   3.252
10600SOL    HW142479   3.208   4.833   3.261
10600SOL    HW242480   3.099   4.719   3.302
10601SOL     OW42481   1.397   2.494   2.630
10601SOL    HW142482   1.327   2.480   2.700
10601SOL    HW242483   1.472   2.548   2.668
10602SOL     OW42484   0.242   3.766   4.360
10602SOL    HW142485   0.235   3.835   4.289
10602SOL    HW242486   0.338   3.754   4.386
10603SOL     OW42487   0.054   3.558   1.345
10603SOL    HW142488   0.042   3.488   1.416
10603SOL    HW242489   0.013   3.527   1.260
10604SOL     OW42490   7.932   4.398   4.119
10604SOL    HW142491   7.966   4.334   4.051
10604SOL    HW242492   8.000   4.469   4.136
10605SOL     OW42493   7.375   8.291   1.926
10605SOL    HW142494   7.451   8.340   1.969
10605SOL    HW242495   7.405   8.198   1.902
10606SOL     OW42496   7.453   3.244   4.384
10606SOL    HW142497   7.407   3.320   4.338
10606SOL    HW242498   7.386   3.173   4.406
10607SOL     OW42499   6.182   7.877   3.439
10607SOL    HW142500   6.205   7.933   3.359
10607SOL    HW242501   6.088   7.897   3.468
10608SOL     OW42502   4.639   7.250   3.395
10608SOL    HW142503   4.667   7.191   3.471
10608SOL    HW242504   4.571   7.316   3.427
10609SOL     OW42505   0.113   6.683   4.127
10609SOL    HW142506   0.092   6.777   4.154
10609SOL    HW242507   0.041   6.622   4.159
10610SOL     OW42508   8.964   0.277   3.434
10610SOL    HW142509   8.990   0.368   3.401
10610SOL    HW242510   8.994   0.208   3.369
10611SOL     OW42511   6.284   9.966   2.920
10611SOL    HW142512   6.281   9.885   2.862
10611SOL    HW242513   6.337   0.038   2.875
10612SOL     OW42514   6.263   8.770   3.494
10612SOL    HW142515   6.336   8.803   3.435
10612SOL    HW242516   6.175   8.807   3.463
10613SOL     OW42517   0.671   6.470   0.606
10613SOL    HW142518   0.651   6.393   0.667
10613SOL    HW242519   0.704   6.436   0.518
10614SOL     OW42520   8.690   5.235   1.994
10614SOL    HW142521   8.625   5.292   1.943
10614SOL    HW242522   8.652   5.143   2.004
10615SOL     OW42523   8.363   0.185   2.135
10615SOL    HW142524   8.339   0.134   2.052
10615SOL    HW242525   8.426   0.131   2.190
10616SOL     OW42526   0.327   4.513   3.638
10616SOL    HW142527   0.393   4.572   3.685
10616SOL    HW242528   0.374   4.455   3.572
10617SOL     OW42529   0.591   4.704   1.352
10617SOL    HW142530   0.556   4.706   1.258
10617SOL    HW242531   0.513   4.707   1.415
10618SOL     OW42532   8.799   1.989   4.030
10618SOL    HW142533   8.794   1.892   4.055
10618SOL    HW242534   8.778   2.000   3.933
10619SOL     OW42535   3.250   7.705   1.678
10619SOL    HW142536   3.215   7.612   1.690
10619SOL    HW242537   3.190   7.756   1.617
10620SOL     OW42538   8.280   4.664   3.058
10620SOL    HW142539   8.279   4.761   3.083
10620SOL    HW242540   8.314   4.655   2.964
10621SOL     OW42541   3.793   8.477   2.610
10621SOL    HW142542   3.742   8.404   2.564
10621SOL    HW242543   3.832   8.539   2.542
10622SOL     OW42544   3.930   4.377   2.399
10622SOL    HW142545   3.995   4.341   2.332
10622SOL    HW242546   3.900   4.468   2.370
10623SOL     OW42547   9.286   4.729   0.568
10623SOL    HW142548   9.327   4.713   0.658
10623SOL    HW242549   9.190   4.753   0.580
10624SOL     OW42550   4.365   8.874   3.033
10624SOL    HW142551   4.296   8.900   3.100
10624SOL    HW242552   4.344   8.918   2.945
10625SOL     OW42553   3.697   3.968   1.093
10625SOL    HW142554   3.705   4.006   1.001
10625SOL    HW242555   3.735   3.876   1.095
10626SOL     OW42556   9.263   1.323   0.505
10626SOL    HW142557   9.311   1.316   0.593
10626SOL    HW242558   9.324   1.297   0.431
10627SOL     OW42559   1.833   2.658   1.009
10627SOL    HW142560   1.833   2.609   0.922
10627SOL    HW242561   1.782   2.605   1.077
10628SOL     OW42562   4.730   1.490   2.144
10628SOL    HW142563   4.658   1.516   2.079
10628SOL    HW242564   4.723   1.393   2.165
10629SOL     OW42565   9.062   1.827   0.740
10629SOL    HW142566   9.155   1.793   0.730
10629SOL    HW242567   9.053   1.915   0.695
10630SOL     OW42568   6.702   0.808   3.373
10630SOL    HW142569   6.797   0.780   3.359
10630SOL    HW242570   6.695   0.907   3.373
10631SOL     OW42571   8.729   2.303   0.715
10631SOL    HW142572   8.709   2.391   0.673
10631SOL    HW242573   8.646   2.248   0.718
10632SOL     OW42574   1.683   2.837   1.960
10632SOL    HW142575   1.623   2.830   1.881
10632SOL    HW242576   1.768   2.882   1.934
10633SOL     OW42577   6.651   0.045   2.451
10633SOL    HW142578   6.692   9.976   2.391
10633SOL    HW242579   6.651   0.012   2.545
10634SOL     OW42580   3.862   2.590   0.648
10634SOL    HW142581   3.857   2.686   0.623
10634SOL    HW242582   3.918   2.579   0.730
10635SOL     OW42583   4.051   2.891   1.500
10635SOL    HW142584   4.025   2.819   1.565
10635SOL    HW242585   4.085   2.850   1.416
10636SOL     OW42586   0.640   2.476   3.625
10636SOL    HW142587   0.734   2.443   3.620
10636SOL    HW242588   0.580   2.403   3.658
10637SOL     OW42589   7.595   9.136   3.953
10637SOL    HW142590   7.573   9.076   4.030
10637SOL    HW242591   7.561   9.095   3.868
10638SOL     OW42592   9.944   3.696   4.210
10638SOL    HW142593   9.986   3.622   4.262
10638SOL    HW242594   9.888   3.752   4.271
10639SOL     OW42595   2.171   4.669   2.684
10639SOL    HW142596   2.173   4.769   2.687
10639SOL    HW242597   2.109   4.635   2.754
10640SOL     OW42598   0.284   3.628   2.818
10640SOL    HW142599   0.192   3.617   2.780
10640SOL    HW242600   0.293   3.572   2.900
10641SOL     OW42601   2.585   2.033   3.769
10641SOL    HW142602   2.500   1.979   3.775
10641SOL    HW242603   2.569   2.124   3.808
10642SOL     OW42604   7.508   1.877   0.836
10642SOL    HW142605   7.517   1.976   0.821
10642SOL    HW242606   7.417   1.847   0.806
10643SOL     OW42607   0.799   8.935   4.201
10643SOL    HW142608   0.793   8.903   4.106
10643SOL    HW242609   0.756   8.869   4.261
10644SOL     OW42610   2.711   5.271   1.700
10644SOL    HW142611   2.751   5.339   1.762
10644SOL    HW242612   2.761   5.185   1.708
10645SOL     OW42613   0.841   4.534   3.901
10645SOL    HW142614   0.816   4.630   3.914
10645SOL    HW242615   0.940   4.525   3.900
10646SOL     OW42616   4.957   2.212   3.844
10646SOL    HW142617   4.916   2.168   3.765
10646SOL    HW242618   5.055   2.192   3.847
10647SOL     OW42619   2.576   6.137   2.753
10647SOL    HW142620   2.513   6.184   2.815
10647SOL    HW242621   2.606   6.051   2.795
10648SOL     OW42622   1.830   8.544   2.369
10648SOL    HW142623   1.926   8.571   2.372
10648SOL    HW242624   1.784   8.593   2.295
10649SOL     OW42625   0.607   6.668   0.318
10649SOL    HW142626   0.603   6.689   0.221
10649SOL    HW242627   0.518   6.686   0.360
10650SOL     OW42628   7.691   0.585   1.402
10650SOL    HW142629   7.697   0.584   1.502
10650SOL    HW242630   7.630   0.512   1.372
10651SOL     OW42631   2.592   2.790   1.300
10651SOL    HW142632   2.683   2.761   1.329
10651SOL    HW242633   2.597   2.825   1.206
10652SOL     OW42634   5.861   9.242   3.101
10652SOL    HW142635   5.888   9.174   3.033
10652SOL    HW242636   5.790   9.301   3.061
10653SOL     OW42637   2.011   4.194   2.604
10653SOL    HW142638   1.955   4.247   2.668
10653SOL    HW242639   2.007   4.235   2.514
10654SOL     OW42640   1.288   8.574   0.528
10654SOL    HW142641   1.371   8.578   0.584
10654SOL    HW242642   1.266   8.665   0.495
10655SOL     OW42643   0.360   8.040   3.843
10655SOL    HW142644   0.433   7.972   3.850
10655SOL    HW242645   0.277   7.997   3.807
10656SOL     OW42646   0.141   6.412   2.460
10656SOL    HW142647   0.188   6.500   2.469
10656SOL    HW242648   0.043   6.425   2.477
10657SOL     OW42649   9.550   7.613   1.051
10657SOL    HW142650   9.592   7.524   1.070
10657SOL    HW242651   9.607   7.686   1.087
10658SOL     OW42652   9.431   5.976   1.986
10658SOL    HW142653   9.402   6.071   1.971
10658SOL    HW242654   9.493   5.972   2.064
10659SOL     OW42655   8.250   9.604   3.656
10659SOL    HW142656   8.338   9.560   3.643
10659SOL    HW242657   8.264   9.697   3.691
10660SOL     OW42658   6.483   1.427   3.773
10660SOL    HW142659   6.484   1.417   3.872
10660SOL    HW242660   6.403   1.481   3.746
10661SOL     OW42661   9.585   1.677   2.289
10661SOL    HW142662   9.512   1.659   2.224
10661SOL    HW242663   9.628   1.765   2.267
10662SOL     OW42664   2.609   1.352   3.347
10662SOL    HW142665   2.526   1.307   3.315
10662SOL    HW242666   2.688   1.296   3.324
10663SOL     OW42667   4.797   0.886   0.290
10663SOL    HW142668   4.830   0.978   0.271
10663SOL    HW242669   4.775   0.840   0.204
10664SOL     OW42670   8.732   3.142   1.443
10664SOL    HW142671   8.699   3.051   1.468
10664SOL    HW242672   8.832   3.143   1.449
10665SOL     OW42673   8.785   4.077   1.140
10665SOL    HW142674   8.850   4.036   1.204
10665SOL    HW242675   8.816   4.169   1.116
10666SOL     OW42676   5.982   9.483   4.361
10666SOL    HW142677   5.980   9.583   4.354
10666SOL    HW242678   5.894   9.447   4.333
10667SOL     OW42679   2.638   1.961   2.777
10667SOL    HW142680   2.540   1.976   2.782
10667SOL    HW242681   2.660   1.911   2.693
10668SOL     OW42682   2.097   7.781   2.909
10668SOL    HW142683   2.171   7.801   2.974
10668SOL    HW242684   2.011   7.818   2.944
10669SOL     OW42685   4.775   9.591   4.377
10669SOL    HW142686   4.828   9.671   4.351
10669SOL    HW242687   4.685   9.595   4.332
10670SOL     OW42688   1.725   4.579   3.004
10670SOL    HW142689   1.647   4.569   2.942
10670SOL    HW242690   1.710   4.655   3.066
10671SOL     OW42691   9.364   3.886   1.831
10671SOL    HW142692   9.439   3.925   1.777
10671SOL    HW242693   9.400   3.848   1.915
10672SOL     OW42694   2.737   6.021   3.033
10672SOL    HW142695   2.730   5.966   3.116
10672SOL    HW242696   2.719   5.963   2.953
10673SOL     OW42697   7.798   0.153   0.120
10673SOL    HW142698   7.816   0.156   0.219
10673SOL    HW242699   7.836   0.068   0.083
10674SOL     OW42700   4.191   1.173   3.956
10674SOL    HW142701   4.191   1.134   4.049
10674SOL    HW242702   4.218   1.269   3.961
10675SOL     OW42703   8.762   5.473   3.060
10675SOL    HW142704   8.786   5.400   3.124
10675SOL    HW242705   8.793   5.447   2.968
10676SOL     OW42706   0.395   9.160   1.096
10676SOL    HW142707   0.332   9.122   1.028
10676SOL    HW242708   0.398   9.260   1.087
10677SOL     OW42709   2.360   8.131   3.992
10677SOL    HW142710   2.293   8.140   3.919
10677SOL    HW242711   2.386   8.222   4.025
10678SOL     OW42712   1.441   4.738   3.009
10678SOL    HW142713   1.507   4.746   3.084
10678SOL    HW242714   1.460   4.807   2.940
10679SOL     OW42715   0.945   3.225   3.363
10679SOL    HW142716   0.874   3.185   3.422
10679SOL    HW242717   1.035   3.195   3.394
10680SOL     OW42718   1.550   5.593   3.386
10680SOL    HW142719   1.471   5.535   3.405
10680SOL    HW242720   1.531   5.687   3.416
10681SOL     OW42721   0.097   5.697   1.389
10681SOL    HW142722   0.175   5.703   1.328
10681SOL    HW242723   0.058   5.788   1.404
10682SOL     OW42724   8.283   3.589   1.765
10682SOL    HW142725   8.198   3.599   1.816
10682SOL    HW242726   8.263   3.577   1.668
10683SOL     OW42727   8.817   4.209   4.268
10683SOL    HW142728   8.873   4.232   4.348
10683SOL    HW242729   8.800   4.291   4.214
10684SOL     OW42730   4.781   2.822   2.799
10684SOL    HW142731   4.778   2.810   2.700
10684SOL    HW242732   4.740   2.743   2.844
10685SOL     OW42733   3.634   2.909   1.402
10685SOL    HW142734   3.621   2.891   1.304
10685SOL    HW242735   3.717   2.963   1.416
10686SOL     OW42736   0.087   3.172   1.373
10686SOL    HW142737   0.062   3.082   1.410
10686SOL    HW242738   0.128   3.160   1.282
10687SOL     OW42739   5.772   8.999   3.482
10687SOL    HW142740   5.788   8.985   3.580
10687SOL    HW242741   5.683   9.042   3.469
10688SOL     OW42742   8.245   4.535   3.722
10688SOL    HW142743   8.212   4.501   3.635
10688SOL    HW242744   8.281   4.459   3.777
10689SOL     OW42745   9.345   6.585   2.687
10689SOL    HW142746   9.265   6.526   2.693
10689SOL    HW242747   9.333   6.664   2.747
10690SOL     OW42748   4.399   3.433   2.713
10690SOL    HW142749   4.493   3.402   2.697
10690SOL    HW242750   4.339   3.392   2.645
10691SOL     OW42751   9.207   7.954   2.127
10691SOL    HW142752   9.118   7.917   2.102
10691SOL    HW242753   9.279   7.891   2.098
10692SOL     OW42754   1.459   0.630   3.814
10692SOL    HW142755   1.499   0.714   3.778
10692SOL    HW242756   1.463   0.558   3.744
10693SOL     OW42757   6.976   2.195   3.329
10693SOL    HW142758   7.030   2.169   3.409
10693SOL    HW242759   6.998   2.289   3.303
10694SOL     OW42760   9.652   2.420   3.213
10694SOL    HW142761   9.579   2.366   3.170
10694SOL    HW242762   9.719   2.447   3.143
10695SOL     OW42763   4.386   5.471   1.826
10695SOL    HW142764   4.422   5.498   1.737
10695SOL    HW242765   4.295   5.510   1.839
10696SOL     OW42766   8.293   2.745   3.561
10696SOL    HW142767   8.202   2.706   3.568
10696SOL    HW242768   8.357   2.692   3.617
10697SOL     OW42769   0.730   6.117   4.044
10697SOL    HW142770   0.717   6.039   4.105
10697SOL    HW242771   0.827   6.129   4.025
10698SOL     OW42772   4.615   9.008   2.246
10698SOL    HW142773   4.623   9.023   2.147
10698SOL    HW242774   4.613   8.909   2.265
10699SOL     OW42775   9.600   9.611   1.539
10699SOL    HW142776   9.657   9.616   1.457
10699SOL    HW242777   9.506   9.592   1.512
10700SOL     OW42778   8.132   7.069   2.730
10700SOL    HW142779   8.172   7.005   2.796
10700SOL    HW242780   8.205   7.123   2.688
10701SOL     OW42781   0.771   8.853   3.940
10701SOL    HW142782   0.719   8.915   3.882
10701SOL    HW242783   0.869   8.863   3.920
10702SOL     OW42784   6.178   9.177   1.751
10702SOL    HW142785   6.270   9.172   1.711
10702SOL    HW242786   6.136   9.265   1.728
10703SOL     OW42787   5.495   7.610   4.060
10703SOL    HW142788   5.467   7.667   3.982
10703SOL    HW242789   5.560   7.660   4.117
10704SOL     OW42790   7.406   0.971   3.916
10704SOL    HW142791   7.504   0.992   3.914
10704SOL    HW242792   7.354   1.052   3.888
10705SOL     OW42793   6.967   0.734   3.357
10705SOL    HW142794   7.018   0.818   3.339
10705SOL    HW242795   7.014   0.657   3.315
10706SOL     OW42796   0.341   0.170   0.928
10706SOL    HW142797   0.367   0.156   1.024
10706SOL    HW242798   0.260   0.115   0.908
10707SOL     OW42799   2.628   3.941   1.466
10707SOL    HW142800   2.544   3.889   1.452
10707SOL    HW242801   2.669   3.964   1.377
10708SOL     OW42802   2.667   3.721   1.150
10708SOL    HW142803   2.692   3.810   1.190
10708SOL    HW242804   2.603   3.674   1.210
10709SOL     OW42805   3.380   9.991   2.740
10709SOL    HW142806   3.434   0.074   2.743
10709SOL    HW242807   3.440   9.911   2.741
10710SOL     OW42808   9.365   5.583   1.455
10710SOL    HW142809   9.465   5.583   1.454
10710SOL    HW242810   9.332   5.497   1.493
10711SOL     OW42811   2.973   7.603   0.093
10711SOL    HW142812   2.909   7.677   0.114
10711SOL    HW242813   3.054   7.612   0.151
10712SOL     OW42814   9.062   7.672   1.376
10712SOL    HW142815   9.093   7.649   1.284
10712SOL    HW242816   9.002   7.600   1.410
10713SOL     OW42817   3.417   0.901   0.654
10713SOL    HW142818   3.361   0.975   0.691
10713SOL    HW242819   3.510   0.907   0.692
10714SOL     OW42820   8.714   4.106   1.979
10714SOL    HW142821   8.794   4.108   1.919
10714SOL    HW242822   8.659   4.187   1.964
10715SOL     OW42823   0.404   8.580   0.847
10715SOL    HW142824   0.438   8.673   0.855
10715SOL    HW242825   0.306   8.581   0.827
10716SOL     OW42826   7.728   1.619   4.349
10716SOL    HW142827   7.692   1.549   4.286
10716SOL    HW242828   7.667   1.627   4.428
10717SOL     OW42829   2.012   3.615   2.542
10717SOL    HW142830   2.109   3.637   2.541
10717SOL    HW242831   1.969   3.658   2.621
10718SOL     OW42832   3.043   2.372   2.321
10718SOL    HW142833   2.975   2.443   2.302
10718SOL    HW242834   3.022   2.291   2.267
10719SOL     OW42835   9.341   7.799   4.099
10719SOL    HW142836   9.364   7.734   4.171
10719SOL    HW242837   9.400   7.783   4.020
10720SOL     OW42838   1.868   1.371   0.495
10720SOL    HW142839   1.847   1.340   0.588
10720SOL    HW242840   1.864   1.294   0.431
10721SOL     OW42841   5.445   7.447   2.466
10721SOL    HW142842   5.353   7.410   2.457
10721SOL    HW242843   5.455   7.493   2.554
10722SOL     OW42844   9.155   5.118   0.305
10722SOL    HW142845   9.207   5.041   0.269
10722SOL    HW242846   9.115   5.094   0.394
10723SOL     OW42847   5.828   3.624   0.075
10723SOL    HW142848   5.836   3.569   0.158
10723SOL    HW242849   5.742   3.603   0.029
10724SOL     OW42850   8.614   2.614   0.156
10724SOL    HW142851   8.525   2.598   0.199
10724SOL    HW242852   8.623   2.555   0.076
10725SOL     OW42853   1.595   1.481   0.732
10725SOL    HW142854   1.624   1.516   0.643
10725SOL    HW242855   1.508   1.523   0.757
10726SOL     OW42856   3.576   7.132   2.382
10726SOL    HW142857   3.648   7.073   2.346
10726SOL    HW242858   3.489   7.106   2.340
10727SOL     OW42859   0.266   1.173   2.567
10727SOL    HW142860   0.297   1.266   2.547
10727SOL    HW242861   0.333   1.107   2.531
10728SOL     OW42862   7.251   8.546   2.925
10728SOL    HW142863   7.296   8.514   3.008
10728SOL    HW242864   7.246   8.646   2.927
10729SOL     OW42865   8.011   2.386   2.402
10729SOL    HW142866   7.968   2.476   2.391
10729SOL    HW242867   8.029   2.369   2.499
10730SOL     OW42868   0.941   0.439   1.722
10730SOL    HW142869   0.940   0.472   1.816
10730SOL    HW242870   0.878   0.493   1.666
10731SOL     OW42871   4.160   6.243   2.285
10731SOL    HW142872   4.207   6.192   2.213
10731SOL    HW242873   4.206   6.226   2.373
10732SOL     OW42874   8.388   4.481   4.190
10732SOL    HW142875   8.444   4.403   4.164
10732SOL    HW242876   8.415   4.561   4.135
10733SOL     OW42877   2.256   3.420   0.972
10733SOL    HW142878   2.189   3.410   0.898
10733SOL    HW242879   2.322   3.490   0.948
10734SOL     OW42880   3.975   3.683   1.929
10734SOL    HW142881   3.971   3.674   1.829
10734SOL    HW242882   3.972   3.780   1.953
10735SOL     OW42883   6.151   0.279   1.907
10735SOL    HW142884   6.188   0.189   1.929
10735SOL    HW242885   6.094   0.311   1.983
10736SOL     OW42886   2.673   4.397   1.169
10736SOL    HW142887   2.755   4.408   1.225
10736SOL    HW242888   2.593   4.384   1.228
10737SOL     OW42889   8.555   9.412   1.300
10737SOL    HW142890   8.540   9.416   1.201
10737SOL    HW242891   8.650   9.387   1.317
10738SOL     OW42892   7.184   0.405   1.029
10738SOL    HW142893   7.169   0.482   0.968
10738SOL    HW242894   7.224   0.437   1.114
10739SOL     OW42895   8.813   9.334   1.354
10739SOL    HW142896   8.811   9.301   1.449
10739SOL    HW242897   8.891   9.395   1.342
10740SOL     OW42898   9.451   2.055   2.125
10740SOL    HW142899   9.475   2.122   2.196
10740SOL    HW242900   9.352   2.055   2.111
10741SOL     OW42901   4.277   2.605   3.478
10741SOL    HW142902   4.217   2.684   3.492
10741SOL    HW242903   4.367   2.636   3.449
10742SOL     OW42904   9.216   5.238   0.627
10742SOL    HW142905   9.213   5.258   0.725
10742SOL    HW242906   9.146   5.170   0.605
10743SOL     OW42907   0.685   9.941   2.483
10743SOL    HW142908   0.699   0.037   2.459
10743SOL    HW242909   0.658   9.890   2.401
10744SOL     OW42910   2.274   5.832   2.919
10744SOL    HW142911   2.277   5.842   2.820
10744SOL    HW242912   2.349   5.772   2.949
10745SOL     OW42913   5.139   9.446   2.787
10745SOL    HW142914   5.178   9.371   2.733
10745SOL    HW242915   5.164   9.435   2.883
10746SOL     OW42916   3.786   3.895   1.578
10746SOL    HW142917   3.781   3.946   1.491
10746SOL    HW242918   3.759   3.956   1.653
10747SOL     OW42919   8.745   0.869   4.090
10747SOL    HW142920   8.840   0.893   4.110
10747SOL    HW242921   8.742   0.801   4.017
10748SOL     OW42922   3.107   2.616   0.365
10748SOL    HW142923   3.050   2.590   0.443
10748SOL    HW242924   3.100   2.715   0.351
10749SOL     OW42925   1.949   9.877   0.128
10749SOL    HW142926   1.992   9.861   0.217
10749SOL    HW242927   1.983   9.809   0.063
10750SOL     OW42928   7.824   5.517   0.149
10750SOL    HW142929   7.832   5.615   0.171
10750SOL    HW242930   7.728   5.493   0.137
10751SOL     OW42931   1.898   2.728   4.258
10751SOL    HW142932   1.916   2.784   4.339
10751SOL    HW242933   1.810   2.754   4.218
10752SOL     OW42934   1.677   8.814   3.295
10752SOL    HW142935   1.598   8.835   3.238
10752SOL    HW242936   1.654   8.831   3.391
10753SOL     OW42937   6.549   9.785   4.012
10753SOL    HW142938   6.625   9.742   3.963
10753SOL    HW242939   6.514   9.722   4.081
10754SOL     OW42940   1.852   3.499   3.631
10754SOL    HW142941   1.770   3.513   3.686
10754SOL    HW242942   1.831   3.438   3.554
10755SOL     OW42943   9.264   8.222   2.138
10755SOL    HW142944   9.242   8.125   2.128
10755SOL    HW242945   9.188   8.277   2.102
10756SOL     OW42946   0.115   1.127   3.854
10756SOL    HW142947   0.144   1.074   3.774
10756SOL    HW242948   0.122   1.224   3.835
10757SOL     OW42949   9.591   2.314   2.565
10757SOL    HW142950   9.683   2.283   2.589
10757SOL    HW242951   9.533   2.311   2.646
10758SOL     OW42952   4.748   0.173   3.969
10758SOL    HW142953   4.680   0.218   4.027
10758SOL    HW242954   4.707   0.090   3.930
10759SOL     OW42955   0.431   1.863   1.985
10759SOL    HW142956   0.396   1.950   1.951
10759SOL    HW242957   0.515   1.839   1.937
10760SOL     OW42958   6.326   7.354   3.353
10760SOL    HW142959   6.294   7.447   3.371
10760SOL    HW242960   6.352   7.310   3.439
10761SOL     OW42961   3.720   8.152   1.499
10761SOL    HW142962   3.792   8.188   1.558
10761SOL    HW242963   3.633   8.153   1.548
10762SOL     OW42964   9.692   7.958   0.098
10762SOL    HW142965   9.708   7.907   0.182
10762SOL    HW242966   9.698   7.896   0.019
10763SOL     OW42967   2.051   8.814   1.149
10763SOL    HW142968   2.150   8.819   1.165
10763SOL    HW242969   2.004   8.794   1.235
10764SOL     OW42970   8.490   0.828   1.622
10764SOL    HW142971   8.497   0.814   1.721
10764SOL    HW242972   8.507   0.923   1.600
10765SOL     OW42973   9.948   7.696   0.952
10765SOL    HW142974   9.986   7.604   0.948
10765SOL    HW242975   0.021   7.763   0.937
10766SOL     OW42976   2.878   6.249   3.087
10766SOL    HW142977   2.827   6.164   3.071
10766SOL    HW242978   2.843   6.321   3.027
10767SOL     OW42979   1.492   7.708   1.612
10767SOL    HW142980   1.473   7.662   1.525
10767SOL    HW242981   1.427   7.782   1.625
10768SOL     OW42982   3.055   0.619   2.539
10768SOL    HW142983   3.066   0.643   2.636
10768SOL    HW242984   2.973   0.563   2.527
10769SOL     OW42985   2.843   7.025   1.316
10769SOL    HW142986   2.893   7.076   1.246
10769SOL    HW242987   2.758   6.988   1.276
10770SOL     OW42988   1.667   4.795   3.160
10770SOL    HW142989   1.693   4.880   3.113
10770SOL    HW242990   1.704   4.795   3.253
10771SOL     OW42991   7.622   9.012   2.818
10771SOL    HW142992   7.649   8.998   2.723
10771SOL    HW242993   7.589   8.925   2.856
10772SOL     OW42994   4.270   9.868   3.252
10772SOL    HW142995   4.218   9.945   3.287
10772SOL    HW242996   4.208   9.806   3.204
10773SOL     OW42997   5.710   6.676   2.261
10773SOL    HW142998   5.795   6.643   2.300
10773SOL    HW242999   5.638   6.607   2.274
10774SOL     OW43000   1.259   3.952   0.680
10774SOL    HW143001   1.266   3.898   0.764
10774SOL    HW243002   1.164   3.952   0.648
10775SOL     OW43003   3.569   7.759   2.100
10775SOL    HW143004   3.639   7.831   2.097
10775SOL    HW243005   3.532   7.745   2.009
10776SOL     OW43006   9.578   3.488   2.292
10776SOL    HW143007   9.491   3.516   2.253
10776SOL    HW243008   9.597   3.393   2.268
10777SOL     OW43009   1.216   6.071   0.575
10777SOL    HW143010   1.187   6.118   0.492
10777SOL    HW243011   1.216   5.972   0.559
10778SOL     OW43012   3.371   4.667   2.091
10778SOL    HW143013   3.448   4.727   2.115
10778SOL    HW243014   3.291   4.694   2.144
10779SOL     OW43015   9.625   1.289   2.675
10779SOL    HW143016   9.595   1.271   2.581
10779SOL    HW243017   9.571   1.233   2.738
10780SOL     OW43018   4.951   0.038   2.445
10780SOL    HW143019   4.931   0.121   2.497
10780SOL    HW243020   4.956   9.960   2.507
10781SOL     OW43021   8.462   9.827   3.925
10781SOL    HW143022   8.507   9.739   3.913
10781SOL    HW243023   8.404   9.846   3.845
10782SOL     OW43024   3.851   7.898   0.627
10782SOL    HW143025   3.766   7.847   0.641
10782SOL    HW243026   3.857   7.973   0.694
10783SOL     OW43027   9.887   5.494   0.358
10783SOL    HW143028   9.867   5.526   0.451
10783SOL    HW243029   9.891   5.572   0.296
10784SOL     OW43030   1.507   4.402   2.194
10784SOL    HW143031   1.506   4.389   2.095
10784SOL    HW243032   1.437   4.469   2.220
10785SOL     OW43033   4.559   5.550   2.025
10785SOL    HW143034   4.499   5.515   1.953
10785SOL    HW243035   4.525   5.640   2.055
10786SOL     OW43036   3.098   2.601   2.094
10786SOL    HW143037   3.004   2.619   2.122
10786SOL    HW243038   3.159   2.612   2.173
10787SOL     OW43039   7.947   6.607   4.118
10787SOL    HW143040   7.978   6.552   4.195
10787SOL    HW243041   7.891   6.550   4.057
10788SOL     OW43042   2.166   7.357   1.063
10788SOL    HW143043   2.134   7.423   0.995
10788SOL    HW243044   2.129   7.381   1.153
10789SOL     OW43045   4.073   0.664   3.155
10789SOL    HW143046   4.171   0.677   3.172
10789SOL    HW243047   4.020   0.713   3.225
10790SOL     OW43048   0.960   5.883   2.844
10790SOL    HW143049   1.059   5.888   2.861
10790SOL    HW243050   0.913   5.953   2.898
10791SOL     OW43051   1.634   4.080   2.756
10791SOL    HW143052   1.703   4.100   2.825
10791SOL    HW243053   1.667   4.107   2.665
10792SOL     OW43054   3.788   0.006   1.065
10792SOL    HW143055   3.866   0.014   1.127
10792SOL    HW243056   3.750   0.096   1.047
10793SOL     OW43057   1.551   3.081   1.102
10793SOL    HW143058   1.473   3.024   1.126
10793SOL    HW243059   1.633   3.024   1.091
10794SOL     OW43060   0.202   5.420   3.267
10794SOL    HW143061   0.213   5.517   3.249
10794SOL    HW243062   0.203   5.369   3.181
10795SOL     OW43063   3.435   7.749   3.857
10795SOL    HW143064   3.353   7.731   3.911
10795SOL    HW243065   3.425   7.837   3.811
10796SOL     OW43066   9.475   6.845   4.010
10796SOL    HW143067   9.497   6.832   3.913
10796SOL    HW243068   9.483   6.942   4.034
10797SOL     OW43069   7.777   0.364   0.629
10797SOL    HW143070   7.867   0.399   0.601
10797SOL    HW243071   7.786   0.312   0.714
10798SOL     OW43072   9.903   4.776   4.028
10798SOL    HW143073   9.928   4.760   3.933
10798SOL    HW243074   9.981   4.757   4.087
10799SOL     OW43075   0.580   4.245   1.986
10799SOL    HW143076   0.583   4.231   1.887
10799SOL    HW243077   0.487   4.228   2.019
10800SOL     OW43078   3.899   2.238   4.179
10800SOL    HW143079   3.975   2.200   4.231
10800SOL    HW243080   3.933   2.275   4.092
10801SOL     OW43081   7.654   7.966   2.042
10801SOL    HW143082   7.662   8.043   2.106
10801SOL    HW243083   7.659   7.880   2.093
10802SOL     OW43084   4.855   2.057   3.634
10802SOL    HW143085   4.887   1.996   3.561
10802SOL    HW243086   4.805   2.004   3.702
10803SOL     OW43087   2.428   3.615   0.923
10803SOL    HW143088   2.403   3.700   0.968
10803SOL    HW243089   2.508   3.630   0.866
10804SOL     OW43090   8.937   1.536   4.420
10804SOL    HW143091   8.892   1.580   4.498
10804SOL    HW243092   8.877   1.466   4.382
10805SOL     OW43093   8.377   2.791   3.297
10805SOL    HW143094   8.472   2.766   3.315
10805SOL    HW243095   8.322   2.775   3.379
10806SOL     OW43096   4.597   9.976   0.619
10806SOL    HW143097   4.633   9.895   0.666
10806SOL    HW243098   4.672   0.028   0.579
10807SOL     OW43099   4.822   2.388   1.598
10807SOL    HW143100   4.855   2.479   1.573
10807SOL    HW243101   4.722   2.389   1.600
10808SOL     OW43102   2.728   5.877   3.266
10808SOL    HW143103   2.750   5.785   3.299
10808SOL    HW243104   2.720   5.940   3.343
10809SOL     OW43105   9.220   4.119   2.114
10809SOL    HW143106   9.294   4.152   2.174
10809SOL    HW243107   9.206   4.021   2.129
10810SOL     OW43108   6.200   4.112   5.625
10810SOL    HW143109   6.212   4.014   5.608
10810SOL    HW243110   6.105   4.138   5.606
10811SOL     OW43111   3.822   0.669   3.542
10811SOL    HW143112   3.732   0.626   3.532
10811SOL    HW243113   3.838   0.689   3.639
10812SOL     OW43114   8.970   8.061   1.138
10812SOL    HW143115   8.992   8.015   1.224
10812SOL    HW243116   8.873   8.046   1.117
10813SOL     OW43117   1.809   4.361   3.151
10813SOL    HW143118   1.778   4.443   3.102
10813SOL    HW243119   1.776   4.365   3.245
10814SOL     OW43120   4.261   0.595   1.131
10814SOL    HW143121   4.289   0.692   1.133
10814SOL    HW243122   4.312   0.545   1.201
10815SOL     OW43123   0.872   1.016   0.527
10815SOL    HW143124   0.920   1.029   0.440
10815SOL    HW243125   0.794   0.955   0.513
10816SOL     OW43126   6.707   0.470   3.583
10816SOL    HW143127   6.785   0.531   3.593
10816SOL    HW243128   6.696   0.415   3.666
10817SOL     OW43129   1.319   5.164   3.488
10817SOL    HW143130   1.248   5.123   3.546
10817SOL    HW243131   1.328   5.109   3.404
10818SOL     OW43132   4.213   2.489   3.717
10818SOL    HW143133   4.144   2.555   3.747
10818SOL    HW243134   4.250   2.518   3.629
10819SOL     OW43135   3.335   8.200   2.947
10819SOL    HW143136   3.325   8.114   2.997
10819SOL    HW243137   3.384   8.266   3.004
10820SOL     OW43138   0.822   9.232   1.703
10820SOL    HW143139   0.777   9.212   1.616
10820SOL    HW243140   0.859   9.325   1.700
10821SOL     OW43141   5.670   8.142   1.319
10821SOL    HW143142   5.579   8.101   1.319
10821SOL    HW243143   5.667   8.231   1.274
10822SOL     OW43144   2.807   8.624   2.339
10822SOL    HW143145   2.712   8.605   2.361
10822SOL    HW243146   2.822   8.722   2.332
10823SOL     OW43147   2.150   3.394   3.447
10823SOL    HW143148   2.156   3.493   3.443
10823SOL    HW243149   2.196   3.361   3.529
10824SOL     OW43150   4.523   9.815   3.660
10824SOL    HW143151   4.493   9.795   3.566
10824SOL    HW243152   4.500   9.737   3.719
10825SOL     OW43153   5.525   0.084   2.862
10825SOL    HW143154   5.528   0.172   2.909
10825SOL    HW243155   5.586   0.020   2.908
10826SOL     OW43156   2.196   9.430   3.942
10826SOL    HW143157   2.294   9.422   3.961
10826SOL    HW243158   2.171   9.527   3.934
10827SOL     OW43159   0.365   9.447   2.291
10827SOL    HW143160   0.265   9.447   2.286
10827SOL    HW243161   0.403   9.440   2.199
10828SOL     OW43162   5.765   8.110   2.052
10828SOL    HW143163   5.685   8.055   2.031
10828SOL    HW243164   5.742   8.207   2.049
10829SOL     OW43165   9.270   5.235   4.325
10829SOL    HW143166   9.321   5.181   4.392
10829SOL    HW243167   9.310   5.326   4.318
10830SOL     OW43168   1.985   7.753   3.706
10830SOL    HW143169   1.936   7.788   3.786
10830SOL    HW243170   2.069   7.805   3.694
10831SOL     OW43171   5.012   6.437   2.484
10831SOL    HW143172   5.099   6.425   2.435
10831SOL    HW243173   5.025   6.503   2.558
10832SOL     OW43174   0.981   6.208   1.691
10832SOL    HW143175   1.064   6.226   1.744
10832SOL    HW243176   1.000   6.141   1.620
10833SOL     OW43177   3.132   1.259   1.765
10833SOL    HW143178   3.045   1.230   1.805
10833SOL    HW243179   3.189   1.300   1.836
10834SOL     OW43180   7.409   1.494   0.613
10834SOL    HW143181   7.374   1.445   0.693
10834SOL    HW243182   7.333   1.531   0.561
10835SOL     OW43183   0.101   7.122   2.214
10835SOL    HW143184   0.129   7.195   2.153
10835SOL    HW243185   0.047   7.054   2.164
10836SOL     OW43186   8.718   3.754   4.013
10836SOL    HW143187   8.760   3.818   4.078
10836SOL    HW243188   8.643   3.705   4.057
10837SOL     OW43189   3.599   5.230   0.725
10837SOL    HW143190   3.523   5.293   0.711
10837SOL    HW243191   3.681   5.281   0.750
10838SOL     OW43192   0.904   8.686   3.152
10838SOL    HW143193   0.893   8.738   3.236
10838SOL    HW243194   0.838   8.611   3.150
10839SOL     OW43195   8.805   4.665   2.236
10839SOL    HW143196   8.781   4.658   2.333
10839SOL    HW243197   8.808   4.573   2.196
10840SOL     OW43198   5.778   9.929   1.234
10840SOL    HW143199   5.833   9.998   1.281
10840SOL    HW243200   5.761   9.852   1.296
10841SOL     OW43201   1.750   6.072   3.847
10841SOL    HW143202   1.770   5.976   3.827
10841SOL    HW243203   1.656   6.093   3.822
10842SOL     OW43204   9.715   7.005   0.441
10842SOL    HW143205   9.649   6.931   0.444
10842SOL    HW243206   9.741   7.023   0.346
10843SOL     OW43207   6.398   1.130   2.123
10843SOL    HW143208   6.320   1.174   2.079
10843SOL    HW243209   6.372   1.040   2.157
10844SOL     OW43210   4.269   1.437   3.976
10844SOL    HW143211   4.327   1.486   3.911
10844SOL    HW243212   4.311   1.438   4.066
10845SOL     OW43213   8.308   1.410   0.217
10845SOL    HW143214   8.311   1.490   0.277
10845SOL    HW243215   8.342   1.330   0.267
10846SOL     OW43216   7.073   8.801   1.138
10846SOL    HW143217   7.131   8.762   1.210
10846SOL    HW243218   7.062   8.735   1.064
10847SOL     OW43219   6.257   9.745   2.757
10847SOL    HW143220   6.329   9.727   2.690
10847SOL    HW243221   6.245   9.664   2.815
10848SOL     OW43222   9.034   6.858   3.920
10848SOL    HW143223   9.030   6.943   3.972
10848SOL    HW243224   9.105   6.799   3.958
10849SOL     OW43225   0.470   2.017   2.818
10849SOL    HW143226   0.434   1.924   2.812
10849SOL    HW243227   0.456   2.064   2.731
10850SOL     OW43228   9.001   2.540   2.178
10850SOL    HW143229   9.024   2.555   2.082
10850SOL    HW243230   8.923   2.478   2.185
10851SOL     OW43231   9.612   4.842   3.756
10851SOL    HW143232   9.606   4.791   3.670
10851SOL    HW243233   9.576   4.786   3.831
10852SOL     OW43234   8.160   5.008   0.124
10852SOL    HW143235   8.187   4.914   0.102
10852SOL    HW243236   8.077   5.007   0.181
10853SOL     OW43237   8.882   7.361   0.952
10853SOL    HW143238   8.953   7.423   0.921
10853SOL    HW243239   8.866   7.291   0.882
10854SOL     OW43240   2.606   8.749   2.655
10854SOL    HW143241   2.685   8.718   2.707
10854SOL    HW243242   2.559   8.670   2.615
10855SOL     OW43243   2.262   8.079   3.229
10855SOL    HW143244   2.300   8.119   3.312
10855SOL    HW243245   2.169   8.046   3.247
10856SOL     OW43246   7.113   0.962   3.317
10856SOL    HW143247   7.074   1.052   3.337
10856SOL    HW243248   7.185   0.942   3.383
10857SOL     OW43249   8.831   0.974   2.827
10857SOL    HW143250   8.803   1.041   2.895
10857SOL    HW243251   8.789   0.886   2.847
10858SOL     OW43252   0.249   1.346   0.457
10858SOL    HW143253   0.149   1.353   0.457
10858SOL    HW243254   0.275   1.251   0.442
10859SOL     OW43255   9.533   6.949   2.652
10859SOL    HW143256   9.482   7.033   2.633
10859SOL    HW243257   9.544   6.896   2.568
10860SOL     OW43258   2.816   8.646   2.805
10860SOL    HW143259   2.875   8.679   2.879
10860SOL    HW243260   2.871   8.620   2.727
10861SOL     OW43261   9.847   4.215   1.368
10861SOL    HW143262   9.822   4.199   1.464
10861SOL    HW243263   9.866   4.312   1.354
10862SOL     OW43264   8.784   5.720   2.847
10862SOL    HW143265   8.786   5.692   2.751
10862SOL    HW243266   8.720   5.662   2.898
10863SOL     OW43267   0.128   6.077   1.134
10863SOL    HW143268   0.096   6.170   1.154
10863SOL    HW243269   0.087   6.046   1.048
10864SOL     OW43270   9.492   5.314   3.252
10864SOL    HW143271   9.411   5.343   3.302
10864SOL    HW243272   9.564   5.288   3.317
10865SOL     OW43273   5.568   1.448   3.118
10865SOL    HW143274   5.565   1.531   3.174
10865SOL    HW243275   5.664   1.425   3.098
10866SOL     OW43276   9.373   7.574   0.435
10866SOL    HW143277   9.413   7.605   0.522
10866SOL    HW243278   9.354   7.476   0.440
10867SOL     OW43279   0.157   1.414   3.817
10867SOL    HW143280   0.224   1.395   3.889
10867SOL    HW243281   0.136   1.512   3.817
10868SOL     OW43282   9.172   1.985   0.358
10868SOL    HW143283   9.138   2.007   0.450
10868SOL    HW243284   9.183   2.069   0.306
10869SOL     OW43285   4.407   0.755   0.758
10869SOL    HW143286   4.367   0.834   0.805
10869SOL    HW243287   4.448   0.786   0.672
10870SOL     OW43288   2.340   3.348   2.831
10870SOL    HW143289   2.370   3.262   2.872
10870SOL    HW243290   2.260   3.382   2.880
10871SOL     OW43291   2.281   0.767   2.020
10871SOL    HW143292   2.183   0.774   2.038
10871SOL    HW243293   2.296   0.708   1.941
10872SOL     OW43294   2.002   2.598   2.839
10872SOL    HW143295   2.050   2.535   2.900
10872SOL    HW243296   2.069   2.657   2.794
10873SOL     OW43297   9.504   3.051   4.285
10873SOL    HW143298   9.504   2.964   4.334
10873SOL    HW243299   9.571   3.112   4.327
10874SOL     OW43300   2.644   3.717   2.769
10874SOL    HW143301   2.719   3.656   2.793
10874SOL    HW243302   2.563   3.664   2.745
10875SOL     OW43303   3.116   9.959   2.840
10875SOL    HW143304   3.113   9.863   2.866
10875SOL    HW243305   3.209   9.983   2.814
10876SOL     OW43306   3.687   8.643   0.547
10876SOL    HW143307   3.724   8.630   0.639
10876SOL    HW243308   3.750   8.604   0.479
10877SOL     OW43309   5.090   3.512   2.089
10877SOL    HW143310   5.033   3.591   2.067
10877SOL    HW243311   5.124   3.520   2.183
10878SOL     OW43312   9.188   2.190   2.392
10878SOL    HW143313   9.100   2.183   2.345
10878SOL    HW243314   9.173   2.185   2.491
10879SOL     OW43315   8.021   6.161   2.798
10879SOL    HW143316   8.013   6.071   2.841
10879SOL    HW243317   8.118   6.184   2.787
10880SOL     OW43318   2.870   4.430   1.360
10880SOL    HW143319   2.806   4.465   1.427
10880SOL    HW243320   2.962   4.460   1.382
10881SOL     OW43321   9.723   4.842   2.657
10881SOL    HW143322   9.640   4.896   2.670
10881SOL    HW243323   9.700   4.753   2.618
10882SOL     OW43324   8.753   2.307   1.337
10882SOL    HW143325   8.826   2.375   1.334
10882SOL    HW243326   8.728   2.281   1.244
10883SOL     OW43327   3.741   1.542   3.427
10883SOL    HW143328   3.838   1.540   3.452
10883SOL    HW243329   3.710   1.450   3.405
10884SOL     OW43330   0.577   6.103   2.928
10884SOL    HW143331   0.669   6.091   2.963
10884SOL    HW243332   0.569   6.057   2.839
10885SOL     OW43333   3.994   5.805   1.808
10885SOL    HW143334   3.898   5.827   1.790
10885SOL    HW243335   4.052   5.865   1.753
10886SOL     OW43336   7.591   8.068   1.613
10886SOL    HW143337   7.624   8.129   1.541
10886SOL    HW243338   7.668   8.040   1.670
10887SOL     OW43339   7.648   5.968   4.181
10887SOL    HW143340   7.690   5.878   4.182
10887SOL    HW243341   7.559   5.963   4.135
10888SOL     OW43342   2.122   5.443   2.073
10888SOL    HW143343   2.218   5.430   2.097
10888SOL    HW243344   2.077   5.498   2.143
10889SOL     OW43345   6.900   9.822   1.444
10889SOL    HW143346   6.979   9.882   1.431
10889SOL    HW243347   6.819   9.877   1.462
10890SOL     OW43348   3.741   5.907   1.753
10890SOL    HW143349   3.725   5.987   1.811
10890SOL    HW243350   3.731   5.933   1.657
10891SOL     OW43351   3.163   0.598   4.168
10891SOL    HW143352   3.073   0.640   4.177
10891SOL    HW243353   3.226   0.642   4.233
10892SOL     OW43354   1.052   0.624   2.653
10892SOL    HW143355   1.063   0.699   2.718
10892SOL    HW243356   0.988   0.557   2.690
10893SOL     OW43357   2.355   3.832   4.010
10893SOL    HW143358   2.263   3.831   3.972
10893SOL    HW243359   2.350   3.835   4.110
10894SOL     OW43360   0.332   8.573   2.182
10894SOL    HW143361   0.392   8.494   2.170
10894SOL    HW243362   0.253   8.564   2.123
10895SOL     OW43363   8.759   1.449   3.354
10895SOL    HW143364   8.768   1.503   3.271
10895SOL    HW243365   8.776   1.508   3.434
10896SOL     OW43366   8.192   5.016   1.032
10896SOL    HW143367   8.174   5.088   1.099
10896SOL    HW243368   8.290   5.010   1.015
10897SOL     OW43369   3.802   3.887   4.305
10897SOL    HW143370   3.706   3.879   4.278
10897SOL    HW243371   3.814   3.852   4.398
10898SOL     OW43372   9.448   2.580   4.374
10898SOL    HW143373   9.479   2.485   4.383
10898SOL    HW243374   9.396   2.590   4.290
10899SOL     OW43375   4.370   3.992   1.229
10899SOL    HW143376   4.316   4.070   1.261
10899SOL    HW243377   4.436   4.024   1.161
10900SOL     OW43378   5.852   0.601   0.805
10900SOL    HW143379   5.838   0.700   0.800
10900SOL    HW243380   5.948   0.583   0.825
10901SOL     OW43381   9.138   8.202   1.466
10901SOL    HW143382   9.116   8.110   1.433
10901SOL    HW243383   9.169   8.258   1.389
10902SOL     OW43384   4.872   1.544   2.506
10902SOL    HW143385   4.921   1.516   2.424
10902SOL    HW243386   4.773   1.538   2.490
10903SOL     OW43387   1.557   1.406   2.149
10903SOL    HW143388   1.647   1.417   2.107
10903SOL    HW243389   1.509   1.494   2.149
10904SOL     OW43390   6.512   9.072   3.708
10904SOL    HW143391   6.597   9.052   3.757
10904SOL    HW243392   6.533   9.091   3.612
10905SOL     OW43393   8.164   5.597   3.552
10905SOL    HW143394   8.156   5.617   3.649
10905SOL    HW243395   8.212   5.672   3.506
10906SOL     OW43396   4.095   6.080   1.749
10906SOL    HW143397   4.063   6.068   1.843
10906SOL    HW243398   4.194   6.087   1.749
10907SOL     OW43399   3.189   2.055   1.791
10907SOL    HW143400   3.263   2.012   1.739
10907SOL    HW243401   3.143   2.122   1.733
10908SOL     OW43402   8.806   9.051   3.894
10908SOL    HW143403   8.797   8.992   3.974
10908SOL    HW243404   8.876   9.120   3.911
10909SOL     OW43405   2.582   0.534   1.873
10909SOL    HW143406   2.567   0.436   1.874
10909SOL    HW243407   2.496   0.581   1.850
10910SOL     OW43408   2.833   3.509   2.766
10910SOL    HW143409   2.811   3.501   2.669
10910SOL    HW243410   2.841   3.418   2.806
10911SOL     OW43411   8.531   1.082   1.506
10911SOL    HW143412   8.441   1.052   1.473
10911SOL    HW243413   8.560   1.163   1.454
10912SOL     OW43414   1.596   4.870   5.631
10912SOL    HW143415   1.665   4.916   0.053
10912SOL    HW243416   1.636   4.841   5.545
10913SOL     OW43417   5.553   0.638   1.666
10913SOL    HW143418   5.651   0.657   1.676
10913SOL    HW243419   5.501   0.721   1.684
10914SOL     OW43420   0.291   1.428   3.561
10914SOL    HW143421   0.240   1.421   3.647
10914SOL    HW243422   0.227   1.434   3.485
10915SOL     OW43423   3.093   6.448   1.508
10915SOL    HW143424   3.102   6.372   1.444
10915SOL    HW243425   3.096   6.414   1.602
10916SOL     OW43426   2.202   1.091   2.825
10916SOL    HW143427   2.255   1.160   2.874
10916SOL    HW243428   2.263   1.017   2.796
10917SOL     OW43429   7.393   3.236   0.731
10917SOL    HW143430   7.296   3.237   0.754
10917SOL    HW243431   7.404   3.208   0.636
10918SOL     OW43432   8.734   5.118   0.785
10918SOL    HW143433   8.757   5.119   0.688
10918SOL    HW243434   8.649   5.168   0.799
10919SOL     OW43435   9.079   5.309   2.733
10919SOL    HW143436   9.057   5.223   2.779
10919SOL    HW243437   9.100   5.291   2.637
10920SOL     OW43438   1.721   9.377   4.334
10920SOL    HW143439   1.711   9.399   4.431
10920SOL    HW243440   1.762   9.287   4.324
10921SOL     OW43441   8.545   7.240   0.060
10921SOL    HW143442   8.619   7.270   0.120
10921SOL    HW243443   8.508   7.318   0.011
10922SOL     OW43444   4.216   7.524   2.681
10922SOL    HW143445   4.252   7.553   2.770
10922SOL    HW243446   4.159   7.443   2.693
10923SOL     OW43447   0.447   0.548   4.300
10923SOL    HW143448   0.443   0.648   4.295
10923SOL    HW243449   0.461   0.510   4.209
10924SOL     OW43450   8.943   1.790   2.115
10924SOL    HW143451   8.944   1.725   2.039
10924SOL    HW243452   9.034   1.792   2.158
10925SOL     OW43453   4.619   3.898   0.596
10925SOL    HW143454   4.705   3.933   0.632
10925SOL    HW243455   4.545   3.919   0.659
10926SOL     OW43456   9.114   4.449   1.078
10926SOL    HW143457   9.187   4.390   1.043
10926SOL    HW243458   9.141   4.545   1.068
10927SOL     OW43459   9.552   4.541   4.344
10927SOL    HW143460   9.490   4.483   4.289
10927SOL    HW243461   9.503   4.623   4.374
10928SOL     OW43462   4.455   8.874   0.245
10928SOL    HW143463   4.420   8.941   0.180
10928SOL    HW243464   4.419   8.895   0.336
10929SOL     OW43465   2.653   1.952   3.427
10929SOL    HW143466   2.657   1.902   3.340
10929SOL    HW243467   2.593   1.904   3.490
10930SOL     OW43468   8.111   6.942   3.313
10930SOL    HW143469   8.130   6.844   3.322
10930SOL    HW243470   8.038   6.968   3.377
10931SOL     OW43471   5.328   0.711   1.995
10931SOL    HW143472   5.268   0.640   2.032
10931SOL    HW243473   5.408   0.722   2.054
10932SOL     OW43474   4.402   1.596   3.034
10932SOL    HW143475   4.348   1.542   2.970
10932SOL    HW243476   4.390   1.560   3.126
10933SOL     OW43477   9.949   6.281   2.733
10933SOL    HW143478   9.900   6.319   2.655
10933SOL    HW243479   9.911   6.191   2.755
10934SOL     OW43480   4.343   9.831   1.605
10934SOL    HW143481   4.297   9.806   1.690
10934SOL    HW243482   4.435   9.865   1.626
10935SOL     OW43483   1.131   9.351   2.490
10935SOL    HW143484   1.089   9.335   2.579
10935SOL    HW243485   1.224   9.312   2.490
10936SOL     OW43486   1.937   3.792   1.774
10936SOL    HW143487   2.006   3.850   1.817
10936SOL    HW243488   1.868   3.766   1.842
10937SOL     OW43489   8.325   1.715   4.038
10937SOL    HW143490   8.226   1.708   4.054
10937SOL    HW243491   8.346   1.805   3.999
10938SOL     OW43492   9.492   6.122   0.620
10938SOL    HW143493   9.559   6.064   0.666
10938SOL    HW243494   9.406   6.121   0.671
10939SOL     OW43495   3.951   8.456   4.265
10939SOL    HW143496   3.888   8.528   4.237
10939SOL    HW243497   3.909   8.367   4.248
10940SOL     OW43498   0.765   9.254   2.604
10940SOL    HW143499   0.711   9.176   2.638
10940SOL    HW243500   0.751   9.263   2.505
10941SOL     OW43501   3.622   2.415   2.377
10941SOL    HW143502   3.526   2.390   2.363
10941SOL    HW243503   3.676   2.384   2.299
10942SOL     OW43504   9.716   9.809   2.643
10942SOL    HW143505   9.697   9.802   2.741
10942SOL    HW243506   9.748   9.901   2.622
10943SOL     OW43507   4.246   1.904   1.830
10943SOL    HW143508   4.274   1.838   1.761
10943SOL    HW243509   4.238   1.995   1.787
10944SOL     OW43510   0.815   7.792   3.983
10944SOL    HW143511   0.723   7.796   3.943
10944SOL    HW243512   0.876   7.853   3.933
10945SOL     OW43513   1.896   5.716   0.961
10945SOL    HW143514   1.858   5.624   0.955
10945SOL    HW243515   1.888   5.761   0.872
10946SOL     OW43516   7.936   9.857   1.602
10946SOL    HW143517   7.943   9.952   1.632
10946SOL    HW243518   7.853   9.817   1.639
10947SOL     OW43519   2.991   0.051   3.297
10947SOL    HW143520   2.979   9.956   3.324
10947SOL    HW243521   2.967   0.062   3.200
10948SOL     OW43522   5.407   0.651   4.164
10948SOL    HW143523   5.428   0.642   4.067
10948SOL    HW243524   5.473   0.599   4.218
10949SOL     OW43525   1.817   5.096   2.258
10949SOL    HW143526   1.876   5.141   2.191
10949SOL    HW243527   1.872   5.064   2.334
10950SOL     OW43528   9.644   4.295   0.347
10950SOL    HW143529   9.669   4.382   0.303
10950SOL    HW243530   9.548   4.274   0.328
10951SOL     OW43531   9.707   5.827   0.043
10951SOL    HW143532   9.651   5.767   0.100
10951SOL    HW243533   9.674   5.825   5.583
10952SOL     OW43534   8.303   8.318   2.907
10952SOL    HW143535   8.323   8.333   2.810
10952SOL    HW243536   8.383   8.278   2.952
10953SOL     OW43537   9.805   6.713   2.558
10953SOL    HW143538   9.716   6.736   2.518
10953SOL    HW243539   9.877   6.763   2.510
10954SOL     OW43540   7.641   8.484   3.680
10954SOL    HW143541   7.656   8.541   3.761
10954SOL    HW243542   7.668   8.390   3.700
10955SOL     OW43543   3.933   9.198   3.373
10955SOL    HW143544   3.890   9.288   3.385
10955SOL    HW243545   3.879   9.129   3.422
10956SOL     OW43546   8.814   8.359   4.119
10956SOL    HW143547   8.834   8.276   4.171
10956SOL    HW243548   8.719   8.356   4.087
10957SOL     OW43549   0.821   9.190   4.091
10957SOL    HW143550   0.868   9.253   4.153
10957SOL    HW243551   0.805   9.103   4.137
10958SOL     OW43552   8.793   3.950   4.191
10958SOL    HW143553   8.803   4.048   4.212
10958SOL    HW243554   8.764   3.901   4.273
10959SOL     OW43555   4.396   9.659   0.421
10959SOL    HW143556   4.364   9.739   0.470
10959SOL    HW243557   4.489   9.635   0.452
10960SOL     OW43558   0.015   7.143   0.252
10960SOL    HW143559   9.963   7.216   0.295
10960SOL    HW243560   0.071   7.097   0.321
10961SOL     OW43561   7.535   8.797   3.193
10961SOL    HW143562   7.604   8.750   3.249
10961SOL    HW243563   7.532   8.893   3.219
10962SOL     OW43564   3.399   3.850   2.672
10962SOL    HW143565   3.315   3.802   2.643
10962SOL    HW243566   3.403   3.850   2.771
10963SOL     OW43567   5.342   9.034   3.733
10963SOL    HW143568   5.426   9.086   3.748
10963SOL    HW243569   5.365   8.940   3.710
10964SOL     OW43570   4.387   7.347   3.744
10964SOL    HW143571   4.486   7.337   3.746
10964SOL    HW243572   4.353   7.363   3.836
10965SOL     OW43573   6.231   1.243   2.984
10965SOL    HW143574   6.276   1.161   3.019
10965SOL    HW243575   6.165   1.277   3.051
10966SOL     OW43576   4.442   9.920   1.023
10966SOL    HW143577   4.511   9.848   1.032
10966SOL    HW243578   4.416   9.953   1.113
10967SOL     OW43579   1.667   2.412   1.102
10967SOL    HW143580   1.680   2.393   1.199
10967SOL    HW243581   1.749   2.384   1.052
10968SOL     OW43582   2.479   1.597   3.732
10968SOL    HW143583   2.554   1.607   3.798
10968SOL    HW243584   2.493   1.515   3.678
10969SOL     OW43585   8.769   1.104   0.438
10969SOL    HW143586   8.754   1.053   0.523
10969SOL    HW243587   8.847   1.066   0.389
10970SOL     OW43588   2.728   0.577   0.336
10970SOL    HW143589   2.773   0.665   0.320
10970SOL    HW243590   2.768   0.534   0.417
10971SOL     OW43591   1.185   5.520   1.316
10971SOL    HW143592   1.193   5.511   1.217
10971SOL    HW243593   1.261   5.577   1.350
10972SOL     OW43594   2.048   9.016   1.578
10972SOL    HW143595   2.007   8.928   1.601
10972SOL    HW243596   1.991   9.090   1.613
10973SOL     OW43597   9.363   8.598   3.738
10973SOL    HW143598   9.300   8.527   3.769
10973SOL    HW243599   9.376   8.665   3.812
10974SOL     OW43600   4.091   6.447   1.236
10974SOL    HW143601   4.030   6.453   1.157
10974SOL    HW243602   4.038   6.451   1.320
10975SOL     OW43603   1.724   5.735   1.479
10975SOL    HW143604   1.683   5.669   1.542
10975SOL    HW243605   1.758   5.687   1.398
10976SOL     OW43606   6.007   8.873   3.412
10976SOL    HW143607   5.920   8.911   3.441
10976SOL    HW243608   6.046   8.929   3.340
10977SOL     OW43609   8.487   0.123   3.408
10977SOL    HW143610   8.565   0.180   3.437
10977SOL    HW243611   8.491   0.109   3.310
10978SOL     OW43612   4.646   7.261   2.122
10978SOL    HW143613   4.647   7.191   2.194
10978SOL    HW243614   4.596   7.341   2.154
10979SOL     OW43615   2.165   7.997   0.447
10979SOL    HW143616   2.184   8.094   0.428
10979SOL    HW243617   2.251   7.948   0.458
10980SOL     OW43618   7.287   4.447   0.731
10980SOL    HW143619   7.216   4.443   0.661
10980SOL    HW243620   7.306   4.355   0.764
10981SOL     OW43621   5.151   7.192   3.637
10981SOL    HW143622   5.187   7.265   3.695
10981SOL    HW243623   5.131   7.228   3.546
10982SOL     OW43624   4.046   6.829   1.936
10982SOL    HW143625   3.966   6.875   1.898
10982SOL    HW243626   4.021   6.788   2.024
10983SOL     OW43627   7.349   3.336   1.068
10983SOL    HW143628   7.377   3.247   1.033
10983SOL    HW243629   7.415   3.367   1.137
10984SOL     OW43630   0.907   1.979   1.846
10984SOL    HW143631   0.899   2.033   1.762
10984SOL    HW243632   1.004   1.972   1.871
10985SOL     OW43633   5.730   9.408   1.683
10985SOL    HW143634   5.795   9.401   1.607
10985SOL    HW243635   5.661   9.477   1.662
10986SOL     OW43636   8.573   9.671   1.437
10986SOL    HW143637   8.644   9.685   1.506
10986SOL    HW243638   8.568   9.574   1.413
10987SOL     OW43639   1.222   5.533   1.045
10987SOL    HW143640   1.215   5.633   1.043
10987SOL    HW243641   1.237   5.499   0.952
10988SOL     OW43642   3.542   8.322   3.677
10988SOL    HW143643   3.590   8.327   3.590
10988SOL    HW243644   3.572   8.241   3.727
10989SOL     OW43645   3.989   1.608   0.509
10989SOL    HW143646   3.903   1.656   0.522
10989SOL    HW243647   4.043   1.655   0.439
10990SOL     OW43648   2.445   1.736   0.166
10990SOL    HW143649   2.359   1.750   0.118
10990SOL    HW243650   2.521   1.759   0.106
10991SOL     OW43651   1.094   6.372   2.769
10991SOL    HW143652   1.072   6.320   2.687
10991SOL    HW243653   1.193   6.383   2.775
10992SOL     OW43654   1.788   7.631   4.057
10992SOL    HW143655   1.888   7.628   4.054
10992SOL    HW243656   1.754   7.690   3.983
10993SOL     OW43657   8.011   3.304   4.313
10993SOL    HW143658   7.915   3.296   4.340
10993SOL    HW243659   8.038   3.223   4.260
10994SOL     OW43660   9.747   9.617   1.308
10994SOL    HW143661   9.749   9.689   1.238
10994SOL    HW243662   9.705   9.534   1.269
10995SOL     OW43663   9.367   2.311   2.822
10995SOL    HW143664   9.287   2.276   2.772
10995SOL    HW243665   9.342   2.397   2.868
10996SOL     OW43666   1.717   4.368   3.406
10996SOL    HW143667   1.695   4.427   3.484
10996SOL    HW243668   1.667   4.282   3.413
10997SOL     OW43669   2.781   2.559   3.337
10997SOL    HW143670   2.741   2.594   3.421
10997SOL    HW243671   2.841   2.481   3.358
10998SOL     OW43672   2.115   7.468   2.396
10998SOL    HW143673   2.168   7.486   2.479
10998SOL    HW243674   2.029   7.424   2.420
10999SOL     OW43675   2.622   8.270   3.411
10999SOL    HW143676   2.612   8.352   3.354
10999SOL    HW243677   2.533   8.225   3.419
11000SOL     OW43678   0.892   8.610   0.709
11000SOL    HW143679   0.839   8.617   0.624
11000SOL    HW243680   0.971   8.671   0.704
11001SOL     OW43681   2.571   0.102   1.106
11001SOL    HW143682   2.572   0.194   1.146
11001SOL    HW243683   2.655   0.054   1.130
11002SOL     OW43684   4.188   8.900   4.263
11002SOL    HW143685   4.101   8.874   4.220
11002SOL    HW243686   4.217   8.989   4.229
11003SOL     OW43687   2.390   4.627   0.968
11003SOL    HW143688   2.485   4.636   0.997
11003SOL    HW243689   2.382   4.647   0.870
11004SOL     OW43690   2.284   2.104   1.160
11004SOL    HW143691   2.224   2.032   1.125
11004SOL    HW243692   2.248   2.137   1.247
11005SOL     OW43693   1.160   2.230   0.485
11005SOL    HW143694   1.252   2.232   0.448
11005SOL    HW243695   1.094   2.235   0.410
11006SOL     OW43696   2.122   9.123   4.241
11006SOL    HW143697   2.151   9.049   4.301
11006SOL    HW243698   2.118   9.091   4.146
11007SOL     OW43699   8.552   6.255   0.425
11007SOL    HW143700   8.620   6.327   0.406
11007SOL    HW243701   8.472   6.296   0.468
11008SOL     OW43702   0.304   3.482   3.046
11008SOL    HW143703   0.271   3.394   3.011
11008SOL    HW243704   0.263   3.500   3.135
11009SOL     OW43705   4.644   9.255   3.171
11009SOL    HW143706   4.585   9.289   3.244
11009SOL    HW243707   4.627   9.158   3.156
11010SOL     OW43708   4.800   4.455   1.026
11010SOL    HW143709   4.848   4.534   0.987
11010SOL    HW243710   4.767   4.478   1.118
11011SOL     OW43711   0.877   9.457   0.729
11011SOL    HW143712   0.900   9.488   0.822
11011SOL    HW243713   0.815   9.523   0.687
11012SOL     OW43714   0.093   1.468   2.689
11012SOL    HW143715   0.181   1.442   2.650
11012SOL    HW243716   0.020   1.421   2.641
11013SOL     OW43717   8.777   5.985   1.564
11013SOL    HW143718   8.707   6.031   1.619
11013SOL    HW243719   8.736   5.909   1.514
11014SOL     OW43720   3.191   6.856   2.716
11014SOL    HW143721   3.287   6.886   2.718
11014SOL    HW243722   3.178   6.780   2.779
11015SOL     OW43723   8.853   6.192   3.878
11015SOL    HW143724   8.841   6.162   3.784
11015SOL    HW243725   8.843   6.292   3.883
11016SOL     OW43726   1.344   3.209   2.369
11016SOL    HW143727   1.331   3.277   2.296
11016SOL    HW243728   1.436   3.171   2.363
11017SOL     OW43729   8.485   8.436   4.315
11017SOL    HW143730   8.501   8.532   4.335
11017SOL    HW243731   8.554   8.380   4.361
11018SOL     OW43732   9.399   1.800   1.266
11018SOL    HW143733   9.494   1.790   1.237
11018SOL    HW243734   9.354   1.711   1.263
11019SOL     OW43735   2.964   4.571   1.819
11019SOL    HW143736   2.909   4.611   1.746
11019SOL    HW243737   3.009   4.488   1.785
11020SOL     OW43738   7.337   0.667   1.865
11020SOL    HW143739   7.249   0.711   1.845
11020SOL    HW243740   7.406   0.737   1.882
11021SOL     OW43741   6.275   9.535   1.434
11021SOL    HW143742   6.352   9.593   1.459
11021SOL    HW243743   6.211   9.587   1.377
11022SOL     OW43744   2.062   2.984   2.832
11022SOL    HW143745   1.978   2.935   2.856
11022SOL    HW243746   2.038   3.062   2.774
11023SOL     OW43747   3.433   4.097   2.546
11023SOL    HW143748   3.339   4.113   2.516
11023SOL    HW243749   3.439   4.009   2.593
11024SOL     OW43750   9.143   1.618   3.665
11024SOL    HW143751   9.196   1.588   3.744
11024SOL    HW243752   9.170   1.565   3.585
11025SOL     OW43753   0.256   0.731   0.255
11025SOL    HW143754   0.161   0.746   0.284
11025SOL    HW243755   0.256   0.679   0.170
11026SOL     OW43756   5.098   7.257   3.368
11026SOL    HW143757   5.049   7.343   3.353
11026SOL    HW243758   5.126   7.219   3.279
11027SOL     OW43759   2.715   1.543   3.883
11027SOL    HW143760   2.752   1.558   3.791
11027SOL    HW243761   2.760   1.604   3.948
11028SOL     OW43762   4.511   0.697   0.207
11028SOL    HW143763   4.589   0.691   0.145
11028SOL    HW243764   4.442   0.630   0.181
11029SOL     OW43765   8.501   4.173   0.416
11029SOL    HW143766   8.474   4.128   0.501
11029SOL    HW243767   8.598   4.195   0.419
11030SOL     OW43768   1.116   0.025   0.436
11030SOL    HW143769   1.216   0.028   0.438
11030SOL    HW243770   1.086   9.973   0.357
11031SOL     OW43771   4.601   0.990   3.359
11031SOL    HW143772   4.669   1.039   3.415
11031SOL    HW243773   4.612   1.017   3.263
11032SOL     OW43774   2.646   4.691   0.397
11032SOL    HW143775   2.567   4.640   0.429
11032SOL    HW243776   2.617   4.759   0.329
11033SOL     OW43777   8.021   0.445   0.550
11033SOL    HW143778   8.093   0.410   0.609
11033SOL    HW243779   8.043   0.423   0.455
11034SOL     OW43780   7.440   2.033   1.395
11034SOL    HW143781   7.461   1.959   1.459
11034SOL    HW243782   7.475   2.009   1.304
11035SOL     OW43783   6.739   1.819   2.667
11035SOL    HW143784   6.695   1.885   2.728
11035SOL    HW243785   6.683   1.806   2.586
11036SOL     OW43786   8.620   7.191   2.591
11036SOL    HW143787   8.668   7.277   2.608
11036SOL    HW243788   8.600   7.146   2.678
11037SOL     OW43789   3.516   2.931   0.865
11037SOL    HW143790   3.578   3.004   0.836
11037SOL    HW243791   3.519   2.922   0.964
11038SOL     OW43792   7.848   8.747   0.788
11038SOL    HW143793   7.819   8.715   0.879
11038SOL    HW243794   7.945   8.768   0.791
11039SOL     OW43795   9.513   0.155   1.593
11039SOL    HW143796   9.572   0.127   1.518
11039SOL    HW243797   9.419   0.165   1.560
11040SOL     OW43798   9.643   2.427   1.264
11040SOL    HW143799   9.647   2.330   1.238
11040SOL    HW243800   9.549   2.460   1.254
11041SOL     OW43801   0.332   3.281   3.324
11041SOL    HW143802   0.289   3.370   3.307
11041SOL    HW243803   0.270   3.208   3.296
11042SOL     OW43804   0.178   7.481   3.307
11042SOL    HW143805   0.190   7.548   3.380
11042SOL    HW243806   0.107   7.415   3.333
11043SOL     OW43807   7.689   9.778   1.729
11043SOL    HW143808   7.670   9.843   1.802
11043SOL    HW243809   7.603   9.753   1.684
11044SOL     OW43810   9.959   5.207   2.939
11044SOL    HW143811   9.901   5.256   3.004
11044SOL    HW243812   9.927   5.112   2.931
11045SOL     OW43813   8.678   3.530   0.988
11045SOL    HW143814   8.675   3.609   0.928
11045SOL    HW243815   8.589   3.518   1.031
11046SOL     OW43816   3.320   2.483   0.952
11046SOL    HW143817   3.240   2.422   0.946
11046SOL    HW243818   3.295   2.573   0.918
11047SOL     OW43819   9.593   6.465   2.666
11047SOL    HW143820   9.663   6.536   2.658
11047SOL    HW243821   9.503   6.508   2.676
11048SOL     OW43822   2.903   1.140   2.617
11048SOL    HW143823   2.890   1.102   2.709
11048SOL    HW243824   2.869   1.234   2.615
11049SOL     OW43825   8.852   9.025   0.200
11049SOL    HW143826   8.795   9.002   0.279
11049SOL    HW243827   8.795   9.066   0.129
11050SOL     OW43828   2.164   3.120   2.377
11050SOL    HW143829   2.100   3.165   2.314
11050SOL    HW243830   2.194   3.185   2.446
11051SOL     OW43831   9.452   8.798   3.150
11051SOL    HW143832   9.531   8.859   3.148
11051SOL    HW243833   9.382   8.837   3.209
11052SOL     OW43834   8.159   2.254   3.234
11052SOL    HW143835   8.136   2.352   3.227
11052SOL    HW243836   8.074   2.201   3.236
11053SOL     OW43837   2.446   5.354   3.121
11053SOL    HW143838   2.499   5.402   3.190
11053SOL    HW243839   2.503   5.285   3.076
11054SOL     OW43840   8.279   6.246   3.063
11054SOL    HW143841   8.184   6.277   3.071
11054SOL    HW243842   8.297   6.219   2.968
11055SOL     OW43843   7.606   1.885   1.811
11055SOL    HW143844   7.660   1.805   1.837
11055SOL    HW243845   7.613   1.954   1.883
11056SOL     OW43846   2.966   2.483   1.272
11056SOL    HW143847   2.901   2.412   1.301
11056SOL    HW243848   3.059   2.453   1.292
11057SOL     OW43849   2.164   5.841   0.290
11057SOL    HW143850   2.255   5.802   0.278
11057SOL    HW243851   2.133   5.824   0.384
11058SOL     OW43852   5.351   1.456   1.744
11058SOL    HW143853   5.447   1.429   1.749
11058SOL    HW243854   5.293   1.380   1.775
11059SOL     OW43855   4.522   0.967   0.281
11059SOL    HW143856   4.495   0.884   0.232
11059SOL    HW243857   4.618   0.961   0.306
11060SOL     OW43858   4.458   4.500   5.601
11060SOL    HW143859   4.416   4.586   5.628
11060SOL    HW243860   4.392   4.446   5.548
11061SOL     OW43861   0.166   7.895   3.704
11061SOL    HW143862   0.140   7.975   3.650
11061SOL    HW243863   0.188   7.819   3.643
11062SOL     OW43864   7.273   0.846   0.128
11062SOL    HW143865   7.314   0.755   0.130
11062SOL    HW243866   7.342   0.914   0.152
11063SOL     OW43867   3.498   9.882   0.326
11063SOL    HW143868   3.579   9.874   0.385
11063SOL    HW243869   3.416   9.871   0.382
11064SOL     OW43870   6.995   0.498   3.021
11064SOL    HW143871   7.037   0.504   3.111
11064SOL    HW243872   7.058   0.452   2.958
11065SOL     OW43873   1.622   8.862   0.297
11065SOL    HW143874   1.551   8.902   0.356
11065SOL    HW243875   1.579   8.808   0.225
11066SOL     OW43876   2.089   8.614   2.339
11066SOL    HW143877   2.145   8.539   2.305
11066SOL    HW243878   2.118   8.700   2.296
11067SOL     OW43879   2.404   1.064   2.502
11067SOL    HW143880   2.398   1.012   2.587
11067SOL    HW243881   2.468   1.019   2.440
11068SOL     OW43882   7.245   9.650   4.048
11068SOL    HW143883   7.188   9.604   4.116
11068SOL    HW243884   7.314   9.586   4.015
11069SOL     OW43885   8.859   5.449   2.028
11069SOL    HW143886   8.957   5.433   2.045
11069SOL    HW243887   8.813   5.362   2.016
11070SOL     OW43888   2.292   0.218   1.697
11070SOL    HW143889   2.265   0.137   1.750
11070SOL    HW243890   2.274   0.201   1.600
11071SOL     OW43891   0.193   1.725   2.683
11071SOL    HW143892   0.143   1.639   2.694
11071SOL    HW243893   0.147   1.798   2.733
11072SOL     OW43894   8.401   4.588   0.531
11072SOL    HW143895   8.382   4.505   0.478
11072SOL    HW243896   8.361   4.667   0.484
11073SOL     OW43897   3.353   2.872   2.651
11073SOL    HW143898   3.389   2.782   2.676
11073SOL    HW243899   3.281   2.898   2.715
11074SOL     OW43900   8.453   9.132   0.436
11074SOL    HW143901   8.495   9.210   0.483
11074SOL    HW243902   8.379   9.095   0.492
11075SOL     OW43903   8.161   1.951   1.485
11075SOL    HW143904   8.112   2.031   1.519
11075SOL    HW243905   8.101   1.871   1.487
11076SOL     OW43906   9.320   4.308   0.960
11076SOL    HW143907   9.339   4.348   0.871
11076SOL    HW243908   9.317   4.208   0.952
11077SOL     OW43909   7.984   2.923   2.646
11077SOL    HW143910   7.907   2.947   2.705
11077SOL    HW243911   7.993   2.992   2.574
11078SOL     OW43912   8.426   3.831   1.775
11078SOL    HW143913   8.393   3.738   1.759
11078SOL    HW243914   8.365   3.878   1.839
11079SOL     OW43915   3.130   7.198   4.070
11079SOL    HW143916   3.173   7.263   4.007
11079SOL    HW243917   3.032   7.193   4.051
11080SOL     OW43918   0.613   2.488   2.585
11080SOL    HW143919   0.526   2.533   2.604
11080SOL    HW243920   0.601   2.423   2.510
11081SOL     OW43921   4.060   4.640   1.836
11081SOL    HW143922   4.040   4.589   1.919
11081SOL    HW243923   4.087   4.577   1.763
11082SOL     OW43924   7.951   9.727   2.238
11082SOL    HW143925   7.878   9.784   2.201
11082SOL    HW243926   8.031   9.734   2.179
11083SOL     OW43927   0.579   0.231   3.599
11083SOL    HW143928   0.664   0.236   3.651
11083SOL    HW243929   0.581   0.152   3.538
11084SOL     OW43930   2.061   2.024   4.375
11084SOL    HW143931   2.016   2.021   4.464
11084SOL    HW243932   1.991   2.018   4.303
11085SOL     OW43933   1.576   2.469   3.528
11085SOL    HW143934   1.626   2.481   3.614
11085SOL    HW243935   1.641   2.463   3.453
11086SOL     OW43936   0.097   1.269   3.046
11086SOL    HW143937   0.043   1.343   3.005
11086SOL    HW243938   0.152   1.224   2.976
11087SOL     OW43939   7.797   5.227   0.898
11087SOL    HW143940   7.878   5.275   0.861
11087SOL    HW243941   7.827   5.150   0.953
11088SOL     OW43942   0.027   2.888   1.920
11088SOL    HW143943   0.092   2.812   1.929
11088SOL    HW243944   9.965   2.887   1.999
11089SOL     OW43945   1.986   6.754   4.155
11089SOL    HW143946   2.003   6.750   4.056
11089SOL    HW243947   2.012   6.667   4.196
11090SOL     OW43948   8.701   0.679   3.014
11090SOL    HW143949   8.696   0.663   2.915
11090SOL    HW243950   8.621   0.638   3.058
11091SOL     OW43951   1.625   7.927   2.855
11091SOL    HW143952   1.556   7.986   2.897
11091SOL    HW243953   1.582   7.841   2.826
11092SOL     OW43954   8.990   9.073   4.158
11092SOL    HW143955   8.897   9.036   4.161
11092SOL    HW243956   8.997   9.142   4.086
11093SOL     OW43957   2.959   8.708   3.323
11093SOL    HW143958   2.867   8.690   3.360
11093SOL    HW243959   3.028   8.673   3.387
11094SOL     OW43960   1.835   5.242   2.858
11094SOL    HW143961   1.791   5.159   2.893
11094SOL    HW243962   1.805   5.257   2.764
11095SOL     OW43963   0.318   8.715   1.739
11095SOL    HW143964   0.350   8.731   1.646
11095SOL    HW243965   0.387   8.663   1.790
11096SOL     OW43966   8.999   3.710   2.793
11096SOL    HW143967   9.026   3.806   2.802
11096SOL    HW243968   8.914   3.695   2.844
11097SOL     OW43969   0.933   1.286   0.303
11097SOL    HW143970   0.981   1.198   0.305
11097SOL    HW243971   0.985   1.350   0.246
11098SOL     OW43972   6.088   1.292   2.384
11098SOL    HW143973   6.086   1.342   2.470
11098SOL    HW243974   5.997   1.295   2.342
11099SOL     OW43975   0.086   5.189   2.551
11099SOL    HW143976   9.986   5.194   2.557
11099SOL    HW243977   0.126   5.278   2.573
11100SOL     OW43978   4.435   2.374   1.883
11100SOL    HW143979   4.429   2.452   1.945
11100SOL    HW243980   4.487   2.301   1.927
11101SOL     OW43981   9.822   4.249   3.491
11101SOL    HW143982   9.767   4.193   3.553
11101SOL    HW243983   9.809   4.218   3.397
11102SOL     OW43984   2.730   6.873   2.209
11102SOL    HW143985   2.631   6.880   2.225
11102SOL    HW243986   2.753   6.918   2.124
11103SOL     OW43987   7.957   0.465   1.724
11103SOL    HW143988   8.017   0.541   1.697
11103SOL    HW243989   7.862   0.489   1.704
11104SOL     OW43990   2.470   9.741   2.637
11104SOL    HW143991   2.384   9.791   2.649
11104SOL    HW243992   2.547   9.804   2.645
11105SOL     OW43993   7.395   1.154   0.453
11105SOL    HW143994   7.467   1.214   0.488
11105SOL    HW243995   7.306   1.198   0.465
11106SOL     OW43996   1.254   2.380   0.710
11106SOL    HW143997   1.208   2.436   0.778
11106SOL    HW243998   1.188   2.349   0.641
11107SOL     OW43999   8.807   6.474   3.857
11107SOL    HW144000   8.732   6.484   3.793
11107SOL    HW244001   8.894   6.489   3.810
11108SOL     OW44002   1.511   0.358   2.178
11108SOL    HW144003   1.497   0.317   2.269
11108SOL    HW244004   1.425   0.354   2.127
11109SOL     OW44005   6.003   7.767   2.341
11109SOL    HW144006   6.084   7.743   2.288
11109SOL    HW244007   5.979   7.691   2.402
11110SOL     OW44008   0.227   0.652   0.870
11110SOL    HW144009   0.219   0.717   0.945
11110SOL    HW244010   0.264   0.698   0.790
11111SOL     OW44011   7.794   8.686   2.566
11111SOL    HW144012   7.805   8.745   2.485
11111SOL    HW244013   7.860   8.713   2.636
11112SOL     OW44014   7.605   2.450   1.403
11112SOL    HW144015   7.585   2.455   1.305
11112SOL    HW244016   7.625   2.355   1.428
11113SOL     OW44017   4.415   4.207   3.410
11113SOL    HW144018   4.458   4.278   3.465
11113SOL    HW244019   4.461   4.119   3.425
11114SOL     OW44020   4.453   7.948   4.134
11114SOL    HW144021   4.426   8.033   4.088
11114SOL    HW244022   4.375   7.887   4.139
11115SOL     OW44023   1.506   5.987   0.380
11115SOL    HW144024   1.560   6.045   0.440
11115SOL    HW244025   1.528   5.891   0.398
11116SOL     OW44026   3.724   9.574   2.811
11116SOL    HW144027   3.668   9.545   2.733
11116SOL    HW244028   3.722   9.503   2.882
11117SOL     OW44029   0.950   8.251   1.511
11117SOL    HW144030   0.978   8.339   1.473
11117SOL    HW244031   0.966   8.250   1.609
11118SOL     OW44032   2.583   1.125   3.735
11118SOL    HW144033   2.626   1.053   3.681
11118SOL    HW244034   2.616   1.119   3.830
11119SOL     OW44035   1.437   1.193   2.836
11119SOL    HW144036   1.465   1.113   2.888
11119SOL    HW244037   1.455   1.179   2.739
11120SOL     OW44038   9.674   0.059   1.039
11120SOL    HW144039   9.719   0.126   1.098
11120SOL    HW244040   9.578   0.085   1.028
11121SOL     OW44041   1.382   7.370   1.586
11121SOL    HW144042   1.338   7.293   1.632
11121SOL    HW244043   1.478   7.373   1.611
11122SOL     OW44044   4.338   4.490   2.268
11122SOL    HW144045   4.351   4.438   2.183
11122SOL    HW244046   4.342   4.428   2.346
11123SOL     OW44047   0.776   6.572   2.354
11123SOL    HW144048   0.785   6.660   2.401
11123SOL    HW244049   0.801   6.582   2.258
11124SOL     OW44050   4.130   7.712   2.098
11124SOL    HW144051   4.203   7.779   2.106
11124SOL    HW244052   4.132   7.650   2.177
11125SOL     OW44053   8.626   8.493   2.978
11125SOL    HW144054   8.704   8.500   3.040
11125SOL    HW244055   8.565   8.570   2.993
11126SOL     OW44056   1.513   3.783   1.368
11126SOL    HW144057   1.499   3.796   1.467
11126SOL    HW244058   1.571   3.703   1.353
11127SOL     OW44059   7.996   5.014   0.566
11127SOL    HW144060   8.038   5.098   0.601
11127SOL    HW244061   7.922   4.986   0.628
11128SOL     OW44062   9.726   9.436   0.959
11128SOL    HW144063   9.691   9.426   1.052
11128SOL    HW244064   9.713   9.351   0.909
11129SOL     OW44065   2.386   7.709   0.935
11129SOL    HW144066   2.449   7.740   1.006
11129SOL    HW244067   2.384   7.609   0.933
11130SOL     OW44068   1.647   3.610   0.731
11130SOL    HW144069   1.739   3.592   0.697
11130SOL    HW244070   1.580   3.579   0.663
11131SOL     OW44071   1.976   4.836   0.280
11131SOL    HW144072   2.076   4.843   0.282
11131SOL    HW244073   1.950   4.739   0.274
11132SOL     OW44074   1.772   1.950   2.069
11132SOL    HW144075   1.688   1.945   2.122
11132SOL    HW244076   1.750   1.960   1.972
11133SOL     OW44077   8.190   9.013   3.035
11133SOL    HW144078   8.119   9.005   2.965
11133SOL    HW244079   8.149   9.007   3.126
11134SOL     OW44080   1.785   9.246   3.364
11134SOL    HW144081   1.859   9.216   3.304
11134SOL    HW244082   1.813   9.329   3.412
11135SOL     OW44083   1.895   5.918   3.242
11135SOL    HW144084   1.944   5.854   3.182
11135SOL    HW244085   1.880   5.875   3.331
11136SOL     OW44086   6.943   6.613   2.449
11136SOL    HW144087   6.914   6.518   2.452
11136SOL    HW244088   6.872   6.669   2.407
11137SOL     OW44089   1.158   9.435   1.037
11137SOL    HW144090   1.164   9.350   0.984
11137SOL    HW244091   1.216   9.505   0.994
11138SOL     OW44092   7.941   9.968   3.785
11138SOL    HW144093   7.937   9.904   3.708
11138SOL    HW244094   7.873   9.942   3.853
11139SOL     OW44095   3.025   9.175   2.932
11139SOL    HW144096   3.036   9.079   2.906
11139SOL    HW244097   2.929   9.194   2.949
11140SOL     OW44098   5.332   7.931   3.370
11140SOL    HW144099   5.332   7.996   3.294
11140SOL    HW244100   5.332   7.838   3.334
11141SOL     OW44101   8.195   1.688   2.112
11141SOL    HW144102   8.169   1.624   2.040
11141SOL    HW244103   8.285   1.663   2.148
11142SOL     OW44104   9.367   5.542   1.105
11142SOL    HW144105   9.277   5.502   1.120
11142SOL    HW244106   9.434   5.496   1.163
11143SOL     OW44107   7.431   6.959   2.900
11143SOL    HW144108   7.447   6.987   2.805
11143SOL    HW244109   7.412   6.861   2.903
11144SOL     OW44110   8.053   5.966   1.612
11144SOL    HW144111   8.074   5.884   1.666
11144SOL    HW244112   8.059   5.944   1.515
11145SOL     OW44113   3.272   6.719   3.698
11145SOL    HW144114   3.198   6.780   3.726
11145SOL    HW244115   3.345   6.772   3.654
11146SOL     OW44116   0.665   1.809   1.846
11146SOL    HW144117   0.758   1.838   1.867
11146SOL    HW244118   0.629   1.863   1.769
11147SOL     OW44119   7.390   0.340   4.149
11147SOL    HW144120   7.424   0.309   4.238
11147SOL    HW244121   7.369   0.437   4.154
11148SOL     OW44122   9.518   4.211   3.301
11148SOL    HW144123   9.500   4.244   3.394
11148SOL    HW244124   9.614   4.185   3.293
11149SOL     OW44125   6.968   8.966   3.360
11149SOL    HW144126   6.964   9.014   3.448
11149SOL    HW244127   7.062   8.966   3.327
11150SOL     OW44128   0.652   3.791   1.935
11150SOL    HW144129   0.571   3.759   1.984
11150SOL    HW244130   0.623   3.847   1.857
11151SOL     OW44131   6.899   8.100   3.925
11151SOL    HW144132   6.964   8.049   3.867
11151SOL    HW244133   6.908   8.198   3.906
11152SOL     OW44134   7.080   0.688   2.708
11152SOL    HW144135   7.023   0.717   2.785
11152SOL    HW244136   7.069   0.590   2.694
11153SOL     OW44137   8.545   2.883   0.653
11153SOL    HW144138   8.630   2.934   0.635
11153SOL    HW244139   8.544   2.853   0.749
11154SOL     OW44140   6.368   0.054   0.922
11154SOL    HW144141   6.269   0.052   0.912
11154SOL    HW244142   6.406   0.132   0.873
11155SOL     OW44143   0.827   0.189   3.017
11155SOL    HW144144   0.798   0.151   3.104
11155SOL    HW244145   0.852   0.116   2.954
11156SOL     OW44146   8.410   3.015   4.104
11156SOL    HW144147   8.423   3.104   4.148
11156SOL    HW244148   8.341   3.023   4.032
11157SOL     OW44149   2.249   6.605   0.477
11157SOL    HW144150   2.212   6.697   0.490
11157SOL    HW244151   2.276   6.593   0.382
11158SOL     OW44152   5.056   3.726   3.477
11158SOL    HW144153   5.125   3.653   3.469
11158SOL    HW244154   4.969   3.694   3.440
11159SOL     OW44155   4.024   0.480   3.545
11159SOL    HW144156   4.035   0.469   3.644
11159SOL    HW244157   3.952   0.547   3.527
11160SOL     OW44158   2.390   1.671   0.556
11160SOL    HW144159   2.389   1.762   0.516
11160SOL    HW244160   2.415   1.604   0.486
11161SOL     OW44161   3.571   9.510   2.589
11161SOL    HW144162   3.626   9.437   2.547
11161SOL    HW244163   3.476   9.502   2.560
11162SOL     OW44164   0.109   9.766   3.448
11162SOL    HW144165   0.010   9.750   3.445
11162SOL    HW244166   0.149   9.749   3.358
11163SOL     OW44167   8.942   0.292   1.082
11163SOL    HW144168   8.953   0.221   1.152
11163SOL    HW244169   8.989   0.375   1.112
11164SOL     OW44170   4.958   9.043   3.234
11164SOL    HW144171   4.945   9.064   3.331
11164SOL    HW244172   4.958   9.128   3.181
11165SOL     OW44173   0.602   5.096   3.977
11165SOL    HW144174   0.627   5.000   3.988
11165SOL    HW244175   0.601   5.119   3.880
11166SOL     OW44176   9.004   8.790   2.542
11166SOL    HW144177   9.096   8.811   2.511
11166SOL    HW244178   8.986   8.839   2.628
11167SOL     OW44179   0.056   4.309   0.158
11167SOL    HW144180   0.004   4.391   0.134
11167SOL    HW244181   0.011   4.261   0.233
11168SOL     OW44182   2.128   2.362   1.100
11168SOL    HW144183   2.049   2.348   1.040
11168SOL    HW244184   2.185   2.280   1.099
11169SOL     OW44185   4.432   7.891   0.765
11169SOL    HW144186   4.463   7.839   0.844
11169SOL    HW244187   4.335   7.913   0.776
11170SOL     OW44188   9.183   4.867   3.747
11170SOL    HW144189   9.095   4.914   3.737
11170SOL    HW244190   9.176   4.776   3.705
11171SOL     OW44191   3.078   8.647   0.607
11171SOL    HW144192   3.169   8.661   0.646
11171SOL    HW244193   3.021   8.727   0.626
11172SOL     OW44194   4.577   0.052   1.474
11172SOL    HW144195   4.588   0.001   1.559
11172SOL    HW244196   4.660   0.042   1.418
11173SOL     OW44197   6.596   0.052   1.074
11173SOL    HW144198   6.509   0.056   1.023
11173SOL    HW244199   6.582   0.001   1.159
11174SOL     OW44200   3.004   5.130   2.642
11174SOL    HW144201   3.060   5.214   2.644
11174SOL    HW244202   3.065   5.051   2.640
11175SOL     OW44203   4.710   9.712   3.179
11175SOL    HW144204   4.716   9.671   3.270
11175SOL    HW244205   4.689   9.642   3.112
11176SOL     OW44206   1.967   0.247   3.343
11176SOL    HW144207   1.932   0.324   3.396
11176SOL    HW244208   2.013   0.281   3.261
11177SOL     OW44209   8.590   1.913   1.501
11177SOL    HW144210   8.568   1.999   1.546
11177SOL    HW244211   8.594   1.928   1.402
11178SOL     OW44212   2.884   3.021   1.688
11178SOL    HW144213   2.965   2.986   1.641
11178SOL    HW244214   2.912   3.085   1.760
11179SOL     OW44215   8.578   1.283   0.534
11179SOL    HW144216   8.502   1.267   0.471
11179SOL    HW244217   8.659   1.235   0.500
11180SOL     OW44218   3.535   3.211   1.685
11180SOL    HW144219   3.567   3.224   1.591
11180SOL    HW244220   3.542   3.297   1.735
11181SOL     OW44221   2.034   5.641   3.546
11181SOL    HW144222   2.087   5.599   3.472
11181SOL    HW244223   1.941   5.603   3.547
11182SOL     OW44224   3.197   3.317   3.158
11182SOL    HW144225   3.190   3.264   3.242
11182SOL    HW244226   3.114   3.371   3.146
11183SOL     OW44227   7.826   3.175   4.084
11183SOL    HW144228   7.778   3.198   4.169
11183SOL    HW244229   7.910   3.126   4.105
11184SOL     OW44230   1.432   4.157   3.164
11184SOL    HW144231   1.367   4.211   3.217
11184SOL    HW244232   1.390   4.069   3.141
11185SOL     OW44233   7.043   8.454   3.624
11185SOL    HW144234   6.961   8.510   3.609
11185SOL    HW244235   7.118   8.490   3.568
11186SOL     OW44236   2.185   7.802   2.645
11186SOL    HW144237   2.234   7.887   2.625
11186SOL    HW244238   2.155   7.802   2.741
11187SOL     OW44239   6.282   7.995   3.206
11187SOL    HW144240   6.379   7.982   3.228
11187SOL    HW244241   6.258   7.942   3.125
11188SOL     OW44242   0.626   7.691   1.376
11188SOL    HW144243   0.628   7.601   1.332
11188SOL    HW244244   0.714   7.737   1.362
11189SOL     OW44245   6.489   8.740   2.828
11189SOL    HW144246   6.430   8.704   2.756
11189SOL    HW244247   6.434   8.787   2.896
11190SOL     OW44248   1.165   1.428   1.940
11190SOL    HW144249   1.260   1.440   1.909
11190SOL    HW244250   1.165   1.376   2.026
11191SOL     OW44251   5.686   0.462   3.449
11191SOL    HW144252   5.590   0.439   3.465
11191SOL    HW244253   5.738   0.443   3.532
11192SOL     OW44254   1.018   4.722   0.803
11192SOL    HW144255   0.968   4.784   0.743
11192SOL    HW244256   0.955   4.682   0.870
11193SOL     OW44257   9.816   9.310   3.877
11193SOL    HW144258   9.743   9.377   3.866
11193SOL    HW244259   9.885   9.346   3.941
11194SOL     OW44260   3.505   9.310   4.362
11194SOL    HW144261   3.563   9.382   4.323
11194SOL    HW244262   3.561   9.227   4.375
11195SOL     OW44263   2.328   5.423   3.563
11195SOL    HW144264   2.259   5.370   3.613
11195SOL    HW244265   2.418   5.382   3.577
11196SOL     OW44266   1.662   2.807   4.167
11196SOL    HW144267   1.580   2.756   4.195
11196SOL    HW244268   1.636   2.877   4.100
11197SOL     OW44269   2.679   9.458   3.500
11197SOL    HW144270   2.593   9.419   3.467
11197SOL    HW244271   2.752   9.440   3.434
11198SOL     OW44272   8.852   2.586   4.106
11198SOL    HW144273   8.929   2.578   4.169
11198SOL    HW244274   8.885   2.600   4.013
11199SOL     OW44275   1.983   5.522   0.336
11199SOL    HW144276   1.904   5.576   0.309
11199SOL    HW244277   2.029   5.487   0.254
11200SOL     OW44278   1.095   8.704   2.035
11200SOL    HW144279   1.169   8.766   2.060
11200SOL    HW244280   1.017   8.719   2.095
11201SOL     OW44281   1.321   5.054   3.015
11201SOL    HW144282   1.328   5.031   3.112
11201SOL    HW244283   1.404   5.024   2.968
11202SOL     OW44284   2.971   2.655   2.883
11202SOL    HW144285   2.941   2.567   2.919
11202SOL    HW244286   2.896   2.699   2.834
11203SOL     OW44287   8.529   9.321   3.167
11203SOL    HW144288   8.573   9.236   3.198
11203SOL    HW244289   8.448   9.298   3.113
11204SOL     OW44290   1.444   7.678   0.697
11204SOL    HW144291   1.409   7.728   0.617
11204SOL    HW244292   1.443   7.739   0.777
11205SOL     OW44293   8.978   3.556   0.673
11205SOL    HW144294   8.938   3.472   0.711
11205SOL    HW244295   9.026   3.534   0.588
11206SOL     OW44296   9.284   9.660   2.673
11206SOL    HW144297   9.285   9.566   2.706
11206SOL    HW244298   9.361   9.674   2.610
11207SOL     OW44299   1.300   0.144   4.281
11207SOL    HW144300   1.237   0.085   4.331
11207SOL    HW244301   1.395   0.117   4.300
11208SOL     OW44302   2.098   5.571   4.007
11208SOL    HW144303   2.095   5.634   3.930
11208SOL    HW244304   2.116   5.622   4.091
11209SOL     OW44305   4.041   8.701   0.646
11209SOL    HW144306   3.968   8.641   0.680
11209SOL    HW244307   4.063   8.676   0.552
11210SOL     OW44308   3.280   3.585   1.317
11210SOL    HW144309   3.339   3.641   1.375
11210SOL    HW244310   3.233   3.517   1.374
11211SOL     OW44311   5.181   1.558   1.557
11211SOL    HW144312   5.247   1.531   1.627
11211SOL    HW244313   5.155   1.653   1.570
11212SOL     OW44314   1.636   4.949   4.072
11212SOL    HW144315   1.637   4.933   3.973
11212SOL    HW244316   1.586   5.033   4.092
11213SOL     OW44317   1.943   6.440   3.539
11213SOL    HW144318   2.029   6.425   3.588
11213SOL    HW244319   1.939   6.381   3.458
11214SOL     OW44320   8.311   9.591   1.906
11214SOL    HW144321   8.213   9.613   1.902
11214SOL    HW244322   8.333   9.523   1.837
11215SOL     OW44323   9.332   2.426   3.474
11215SOL    HW144324   9.424   2.388   3.474
11215SOL    HW244325   9.298   2.432   3.380
11216SOL     OW44326   1.561   2.279   2.344
11216SOL    HW144327   1.609   2.230   2.417
11216SOL    HW244328   1.627   2.313   2.278
11217SOL     OW44329   3.287   2.546   3.178
11217SOL    HW144330   3.369   2.599   3.202
11217SOL    HW244331   3.255   2.573   3.088
11218SOL     OW44332   9.443   9.255   2.557
11218SOL    HW144333   9.480   9.215   2.473
11218SOL    HW244334   9.503   9.328   2.589
11219SOL     OW44335   8.516   2.634   2.249
11219SOL    HW144336   8.518   2.571   2.171
11219SOL    HW244337   8.467   2.592   2.325
11220SOL     OW44338   1.777   7.668   0.578
11220SOL    HW144339   1.730   7.585   0.607
11220SOL    HW244340   1.765   7.680   0.479
11221SOL     OW44341   3.537   0.864   2.516
11221SOL    HW144342   3.581   0.936   2.462
11221SOL    HW244343   3.528   0.895   2.610
11222SOL     OW44344   8.647   9.667   0.943
11222SOL    HW144345   8.577   9.732   0.914
11222SOL    HW244346   8.720   9.664   0.875
11223SOL     OW44347   5.863   7.631   4.038
11223SOL    HW144348   5.944   7.680   4.006
11223SOL    HW244349   5.810   7.599   3.959
11224SOL     OW44350   2.495   9.509   3.040
11224SOL    HW144351   2.587   9.501   3.076
11224SOL    HW244352   2.498   9.508   2.940
11225SOL     OW44353   2.367   5.029   0.513
11225SOL    HW144354   2.424   4.999   0.590
11225SOL    HW244355   2.275   5.051   0.546
11226SOL     OW44356   8.631   2.746   3.409
11226SOL    HW144357   8.663   2.675   3.471
11226SOL    HW244358   8.600   2.825   3.462
11227SOL     OW44359   2.062   2.133   0.440
11227SOL    HW144360   2.111   2.129   0.527
11227SOL    HW244361   2.115   2.084   0.370
11228SOL     OW44362   2.486   5.894   1.837
11228SOL    HW144363   2.507   5.922   1.930
11228SOL    HW244364   2.395   5.852   1.834
11229SOL     OW44365   3.050   5.265   3.055
11229SOL    HW144366   3.025   5.168   3.058
11229SOL    HW244367   3.125   5.278   2.990
11230SOL     OW44368   9.969   9.989   3.150
11230SOL    HW144369   0.016   0.057   3.206
11230SOL    HW244370   9.919   0.034   3.076
11231SOL     OW44371   1.182   5.702   2.035
11231SOL    HW144372   1.242   5.778   2.009
11231SOL    HW244373   1.125   5.676   1.958
11232SOL     OW44374   1.897   9.666   3.352
11232SOL    HW144375   1.840   9.739   3.390
11232SOL    HW244376   1.933   9.695   3.263
11233SOL     OW44377   7.866   8.726   0.345
11233SOL    HW144378   7.853   8.662   0.421
11233SOL    HW244379   7.849   8.819   0.377
11234SOL     OW44380   0.382   6.032   1.221
11234SOL    HW144381   0.297   6.049   1.172
11234SOL    HW244382   0.460   6.055   1.163
11235SOL     OW44383   0.346   5.912   3.545
11235SOL    HW144384   0.443   5.906   3.521
11235SOL    HW244385   0.337   5.916   3.645
11236SOL     OW44386   4.227   3.889   2.095
11236SOL    HW144387   4.188   3.874   2.185
11236SOL    HW244388   4.276   3.807   2.065
11237SOL     OW44389   1.459   1.185   1.592
11237SOL    HW144390   1.402   1.266   1.581
11237SOL    HW244391   1.401   1.104   1.597
11238SOL     OW44392   6.192   1.766   2.502
11238SOL    HW144393   6.122   1.835   2.520
11238SOL    HW244394   6.261   1.804   2.440
11239SOL     OW44395   9.462   0.478   1.318
11239SOL    HW144396   9.454   0.561   1.263
11239SOL    HW244397   9.549   0.480   1.368
11240SOL     OW44398   7.734   6.024   3.836
11240SOL    HW144399   7.755   5.949   3.899
11240SOL    HW244400   7.798   6.100   3.852
11241SOL     OW44401   4.838   6.207   1.242
11241SOL    HW144402   4.934   6.183   1.255
11241SOL    HW244403   4.803   6.159   1.162
11242SOL     OW44404   8.119   0.246   1.305
11242SOL    HW144405   8.185   0.306   1.260
11242SOL    HW244406   8.115   0.266   1.403
11243SOL     OW44407   2.650   8.606   1.609
11243SOL    HW144408   2.680   8.698   1.634
11243SOL    HW244409   2.614   8.560   1.691
11244SOL     OW44410   8.764   4.779   1.940
11244SOL    HW144411   8.852   4.781   1.988
11244SOL    HW244412   8.779   4.751   1.845
11245SOL     OW44413   1.147   4.308   0.385
11245SOL    HW144414   1.149   4.339   0.480
11245SOL    HW244415   1.052   4.295   0.356
11246SOL     OW44416   4.478   5.549   1.583
11246SOL    HW144417   4.438   5.640   1.597
11246SOL    HW244418   4.466   5.522   1.488
11247SOL     OW44419   2.512   4.340   3.580
11247SOL    HW144420   2.450   4.418   3.570
11247SOL    HW244421   2.492   4.272   3.509
11248SOL     OW44422   8.703   5.937   1.930
11248SOL    HW144423   8.767   6.006   1.963
11248SOL    HW244424   8.751   5.851   1.915
11249SOL     OW44425   3.475   2.089   0.415
11249SOL    HW144426   3.496   2.011   0.357
11249SOL    HW244427   3.514   2.172   0.374
11250SOL     OW44428   7.657   8.573   2.787
11250SOL    HW144429   7.691   8.610   2.700
11250SOL    HW244430   7.604   8.643   2.835
11251SOL     OW44431   3.451   4.782   3.508
11251SOL    HW144432   3.535   4.761   3.559
11251SOL    HW244433   3.378   4.721   3.536
11252SOL     OW44434   4.573   9.366   4.384
11252SOL    HW144435   4.645   9.401   4.444
11252SOL    HW244436   4.556   9.433   4.312
11253SOL     OW44437   1.763   8.186   4.056
11253SOL    HW144438   1.835   8.124   4.087
11253SOL    HW244439   1.688   8.133   4.018
11254SOL     OW44440   8.585   2.939   2.022
11254SOL    HW144441   8.631   2.934   1.933
11254SOL    HW244442   8.501   2.993   2.012
11255SOL     OW44443   6.874   7.692   1.961
11255SOL    HW144444   6.829   7.742   2.035
11255SOL    HW244445   6.957   7.648   1.996
11256SOL     OW44446   4.441   7.427   3.478
11256SOL    HW144447   4.409   7.398   3.568
11256SOL    HW244448   4.382   7.386   3.408
11257SOL     OW44449   5.604   0.547   2.291
11257SOL    HW144450   5.560   0.458   2.277
11257SOL    HW244451   5.606   0.567   2.389
11258SOL     OW44452   9.079   0.906   3.206
11258SOL    HW144453   8.984   0.899   3.176
11258SOL    HW244454   9.141   0.885   3.130
11259SOL     OW44455   3.636   8.200   1.233
11259SOL    HW144456   3.717   8.168   1.183
11259SOL    HW244457   3.650   8.187   1.331
11260SOL     OW44458   2.167   2.436   3.223
11260SOL    HW144459   2.255   2.425   3.269
11260SOL    HW244460   2.132   2.528   3.240
11261SOL     OW44461   3.662   3.987   3.237
11261SOL    HW144462   3.680   4.002   3.139
11261SOL    HW244463   3.596   3.912   3.248
11262SOL     OW44464   4.554   3.806   2.411
11262SOL    HW144465   4.503   3.892   2.419
11262SOL    HW244466   4.491   3.731   2.394
11263SOL     OW44467   9.101   8.608   3.406
11263SOL    HW144468   9.161   8.671   3.454
11263SOL    HW244469   9.154   8.528   3.376
11264SOL     OW44470   1.403   1.568   4.137
11264SOL    HW144471   1.418   1.666   4.147
11264SOL    HW244472   1.415   1.523   4.226
11265SOL     OW44473   0.729   2.961   3.855
11265SOL    HW144474   0.779   3.044   3.882
11265SOL    HW244475   0.794   2.888   3.835
11266SOL     OW44476   9.854   1.092   1.781
11266SOL    HW144477   9.768   1.048   1.806
11266SOL    HW244478   9.845   1.134   1.691
11267SOL     OW44479   4.047   2.979   3.842
11267SOL    HW144480   4.045   2.881   3.824
11267SOL    HW244481   3.985   3.001   3.918
11268SOL     OW44482   8.137   0.871   1.203
11268SOL    HW144483   8.130   0.928   1.121
11268SOL    HW244484   8.083   0.787   1.190
11269SOL     OW44485   5.106   8.780   3.787
11269SOL    HW144486   5.179   8.827   3.837
11269SOL    HW244487   5.069   8.706   3.843
11270SOL     OW44488   1.424   0.726   2.485
11270SOL    HW144489   1.335   0.750   2.446
11270SOL    HW244490   1.496   0.771   2.432
11271SOL     OW44491   9.552   7.592   0.232
11271SOL    HW144492   9.500   7.551   0.157
11271SOL    HW244493   9.495   7.594   0.314
11272SOL     OW44494   1.745   0.452   1.125
11272SOL    HW144495   1.651   0.434   1.097
11272SOL    HW244496   1.791   0.507   1.055
11273SOL     OW44497   4.082   7.353   1.346
11273SOL    HW144498   4.163   7.318   1.393
11273SOL    HW244499   4.010   7.283   1.347
11274SOL     OW44500   9.078   0.941   0.660
11274SOL    HW144501   9.155   0.988   0.618
11274SOL    HW244502   9.082   0.951   0.759
11275SOL     OW44503   0.591   0.003   3.451
11275SOL    HW144504   0.495   9.976   3.441
11275SOL    HW244505   0.645   9.922   3.473
11276SOL     OW44506   1.815   6.982   3.421
11276SOL    HW144507   1.733   6.974   3.365
11276SOL    HW244508   1.827   7.077   3.449
11277SOL     OW44509   3.586   3.916   0.421
11277SOL    HW144510   3.591   3.822   0.454
11277SOL    HW244511   3.667   3.936   0.365
11278SOL     OW44512   6.872   0.176   1.541
11278SOL    HW144513   6.805   0.113   1.504
11278SOL    HW244514   6.897   0.243   1.472
11279SOL     OW44515   8.433   5.132   1.689
11279SOL    HW144516   8.406   5.060   1.753
11279SOL    HW244517   8.522   5.111   1.649
11280SOL     OW44518   2.161   4.808   2.126
11280SOL    HW144519   2.227   4.750   2.173
11280SOL    HW244520   2.088   4.751   2.088
11281SOL     OW44521   3.969   9.710   4.184
11281SOL    HW144522   3.920   9.766   4.250
11281SOL    HW244523   3.907   9.680   4.112
11282SOL     OW44524   8.106   2.773   1.487
11282SOL    HW144525   8.151   2.687   1.462
11282SOL    HW244526   8.126   2.842   1.418
11283SOL     OW44527   3.227   1.391   1.998
11283SOL    HW144528   3.286   1.444   2.059
11283SOL    HW244529   3.160   1.452   1.956
11284SOL     OW44530   1.807   6.613   4.379
11284SOL    HW144531   1.839   6.635   4.471
11284SOL    HW244532   1.799   6.698   4.325
11285SOL     OW44533   3.945   7.966   3.015
11285SOL    HW144534   3.949   8.064   3.035
11285SOL    HW244535   3.982   7.915   3.092
11286SOL     OW44536   0.064   8.157   2.854
11286SOL    HW144537   0.126   8.219   2.806
11286SOL    HW244538   0.118   8.092   2.908
11287SOL     OW44539   2.179   5.201   0.843
11287SOL    HW144540   2.123   5.163   0.917
11287SOL    HW244541   2.162   5.150   0.759
11288SOL     OW44542   7.320   0.888   1.018
11288SOL    HW144543   7.389   0.931   0.958
11288SOL    HW244544   7.304   0.947   1.097
11289SOL     OW44545   3.609   2.184   1.652
11289SOL    HW144546   3.596   2.279   1.624
11289SOL    HW244547   3.706   2.165   1.662
11290SOL     OW44548   9.589   9.498   3.796
11290SOL    HW144549   9.653   9.575   3.794
11290SOL    HW244550   9.501   9.529   3.830
11291SOL     OW44551   1.465   2.227   1.077
11291SOL    HW144552   1.531   2.302   1.071
11291SOL    HW244553   1.489   2.168   1.154
11292SOL     OW44554   7.644   8.935   1.975
11292SOL    HW144555   7.743   8.951   1.980
11292SOL    HW244556   7.613   8.892   2.059
11293SOL     OW44557   7.112   0.306   1.978
11293SOL    HW144558   7.074   0.328   1.888
11293SOL    HW244559   7.174   0.379   2.007
11294SOL     OW44560   1.482   0.941   3.212
11294SOL    HW144561   1.412   0.993   3.262
11294SOL    HW244562   1.573   0.970   3.243
11295SOL     OW44563   2.031   5.923   2.068
11295SOL    HW144564   2.006   6.007   2.020
11295SOL    HW244565   2.130   5.907   2.058
11296SOL     OW44566   7.668   8.247   1.426
11296SOL    HW144567   7.664   8.345   1.445
11296SOL    HW244568   7.703   8.232   1.334
11297SOL     OW44569   0.375   0.973   0.206
11297SOL    HW144570   0.337   0.881   0.212
11297SOL    HW244571   0.318   1.029   0.146
11298SOL     OW44572   4.521   4.988   0.604
11298SOL    HW144573   4.428   5.018   0.584
11298SOL    HW244574   4.567   5.056   0.661
11299SOL     OW44575   1.303   3.050   0.777
11299SOL    HW144576   1.383   3.093   0.737
11299SOL    HW244577   1.230   3.117   0.788
11300SOL     OW44578   9.232   6.184   2.244
11300SOL    HW144579   9.144   6.231   2.234
11300SOL    HW244580   9.236   6.138   2.332
11301SOL     OW44581   4.302   9.488   3.534
11301SOL    HW144582   4.220   9.545   3.539
11301SOL    HW244583   4.283   9.398   3.573
11302SOL     OW44584   3.928   6.853   3.507
11302SOL    HW144585   3.848   6.839   3.449
11302SOL    HW244586   3.963   6.765   3.539
11303SOL     OW44587   0.622   8.903   3.240
11303SOL    HW144588   0.692   8.872   3.304
11303SOL    HW244589   0.663   8.965   3.173
11304SOL     OW44590   1.481   0.649   0.493
11304SOL    HW144591   1.557   0.644   0.558
11304SOL    HW244592   1.498   0.585   0.418
11305SOL     OW44593   5.818   7.126   3.334
11305SOL    HW144594   5.818   7.224   3.354
11305SOL    HW244595   5.856   7.076   3.411
11306SOL     OW44596   9.317   1.744   0.677
11306SOL    HW144597   9.304   1.694   0.592
11306SOL    HW244598   9.378   1.822   0.662
11307SOL     OW44599   8.893   2.940   4.193
11307SOL    HW144600   8.801   2.930   4.155
11307SOL    HW244601   8.916   2.860   4.247
11308SOL     OW44602   3.168   0.767   2.125
11308SOL    HW144603   3.147   0.829   2.201
11308SOL    HW244604   3.248   0.802   2.076
11309SOL     OW44605   8.957   7.909   0.748
11309SOL    HW144606   8.965   7.851   0.829
11309SOL    HW244607   8.965   8.005   0.774
11310SOL     OW44608   8.493   0.287   3.015
11310SOL    HW144609   8.490   0.204   3.071
11310SOL    HW244610   8.464   0.265   2.922
11311SOL     OW44611   2.728   0.118   1.744
11311SOL    HW144612   2.783   0.105   1.827
11311SOL    HW244613   2.779   0.086   1.665
11312SOL     OW44614   8.986   2.076   0.073
11312SOL    HW144615   8.961   1.980   0.057
11312SOL    HW244616   8.926   2.115   0.141
11313SOL     OW44617   8.954   6.254   2.982
11313SOL    HW144618   8.902   6.338   2.996
11313SOL    HW244619   8.929   6.187   3.052
11314SOL     OW44620   3.664   3.655   0.499
11314SOL    HW144621   3.683   3.589   0.571
11314SOL    HW244622   3.632   3.606   0.417
11315SOL     OW44623   7.750   3.697   1.073
11315SOL    HW144624   7.737   3.612   1.023
11315SOL    HW244625   7.682   3.704   1.146
11316SOL     OW44626   5.279   7.556   2.093
11316SOL    HW144627   5.261   7.464   2.128
11316SOL    HW244628   5.340   7.550   2.013
11317SOL     OW44629   0.789   4.617   2.850
11317SOL    HW144630   0.733   4.693   2.818
11317SOL    HW244631   0.768   4.535   2.797
11318SOL     OW44632   0.764   7.851   0.422
11318SOL    HW144633   0.795   7.862   0.517
11318SOL    HW244634   0.701   7.925   0.399
11319SOL     OW44635   8.025   9.983   1.931
11319SOL    HW144636   7.996   0.025   1.845
11319SOL    HW244637   7.987   0.034   2.007
11320SOL     OW44638   3.958   1.093   1.866
11320SOL    HW144639   3.919   1.028   1.801
11320SOL    HW244640   3.936   1.186   1.836
11321SOL     OW44641   7.619   1.403   4.215
11321SOL    HW144642   7.624   1.315   4.261
11321SOL    HW244643   7.523   1.433   4.212
11322SOL     OW44644   9.752   6.154   3.712
11322SOL    HW144645   9.731   6.056   3.709
11322SOL    HW244646   9.752   6.185   3.807
11323SOL     OW44647   0.999   9.313   2.727
11323SOL    HW144648   1.019   9.256   2.807
11323SOL    HW244649   0.910   9.287   2.689
11324SOL     OW44650   4.755   7.644   4.394
11324SOL    HW144651   4.825   7.713   4.412
11324SOL    HW244652   4.704   7.668   4.312
11325SOL     OW44653   4.127   4.381   3.951
11325SOL    HW144654   4.083   4.449   3.893
11325SOL    HW244655   4.224   4.374   3.926
11326SOL     OW44656   0.971   0.017   1.397
11326SOL    HW144657   0.966   9.949   1.324
11326SOL    HW244658   1.041   0.085   1.374
11327SOL     OW44659   1.386   2.164   0.823
11327SOL    HW144660   1.343   2.243   0.778
11327SOL    HW244661   1.408   2.188   0.917
11328SOL     OW44662   8.706   0.202   4.011
11328SOL    HW144663   8.743   0.246   4.093
11328SOL    HW244664   8.664   0.115   4.036
11329SOL     OW44665   7.745   9.093   4.366
11329SOL    HW144666   7.715   9.187   4.381
11329SOL    HW244667   7.759   9.048   4.454
11330SOL     OW44668   0.248   7.884   3.336
11330SOL    HW144669   0.315   7.948   3.373
11330SOL    HW244670   0.252   7.799   3.389
11331SOL     OW44671   0.811   1.758   0.561
11331SOL    HW144672   0.733   1.801   0.608
11331SOL    HW244673   0.892   1.763   0.620
11332SOL     OW44674   8.965   6.664   0.184
11332SOL    HW144675   8.929   6.689   0.274
11332SOL    HW244676   9.041   6.725   0.160
11333SOL     OW44677   2.873   2.824   0.973
11333SOL    HW144678   2.774   2.835   0.987
11333SOL    HW244679   2.920   2.904   1.010
11334SOL     OW44680   7.833   9.305   3.510
11334SOL    HW144681   7.835   9.398   3.547
11334SOL    HW244682   7.920   9.260   3.528
11335SOL     OW44683   8.070   5.632   3.154
11335SOL    HW144684   8.020   5.616   3.239
11335SOL    HW244685   8.115   5.722   3.158
11336SOL     OW44686   7.989   1.588   0.822
11336SOL    HW144687   7.974   1.685   0.843
11336SOL    HW244688   8.054   1.580   0.747
11337SOL     OW44689   8.362   6.815   0.632
11337SOL    HW144690   8.456   6.838   0.605
11337SOL    HW244691   8.298   6.855   0.566
11338SOL     OW44692   0.388   3.658   2.480
11338SOL    HW144693   0.487   3.659   2.467
11338SOL    HW244694   0.361   3.572   2.523
11339SOL     OW44695   9.725   6.887   1.787
11339SOL    HW144696   9.725   6.878   1.687
11339SOL    HW244697   9.762   6.976   1.812
11340SOL     OW44698   7.974   6.382   2.076
11340SOL    HW144699   7.892   6.409   2.126
11340SOL    HW244700   7.986   6.282   2.083
11341SOL     OW44701   2.610   9.531   2.242
11341SOL    HW144702   2.548   9.529   2.320
11341SOL    HW244703   2.557   9.532   2.157
11342SOL     OW44704   1.603   7.434   2.341
11342SOL    HW144705   1.590   7.382   2.256
11342SOL    HW244706   1.693   7.415   2.379
11343SOL     OW44707   0.171   1.425   1.820
11343SOL    HW144708   0.201   1.518   1.839
11343SOL    HW244709   0.184   1.368   1.902
11344SOL     OW44710   8.796   3.231   2.098
11344SOL    HW144711   8.828   3.170   2.171
11344SOL    HW244712   8.697   3.242   2.105
11345SOL     OW44713   1.950   2.070   1.208
11345SOL    HW144714   2.011   2.007   1.159
11345SOL    HW244715   2.003   2.123   1.274
11346SOL     OW44716   5.592   8.405   3.559
11346SOL    HW144717   5.523   8.434   3.625
11346SOL    HW244718   5.570   8.442   3.469
11347SOL     OW44719   0.042   3.681   1.935
11347SOL    HW144720   0.006   3.762   1.888
11347SOL    HW244721   0.079   3.618   1.867
11348SOL     OW44722   4.652   1.040   3.099
11348SOL    HW144723   4.752   1.035   3.095
11348SOL    HW244724   4.613   1.011   3.012
11349SOL     OW44725   3.881   0.732   1.881
11349SOL    HW144726   3.977   0.708   1.872
11349SOL    HW244727   3.860   0.809   1.821
11350SOL     OW44728   0.447   9.733   1.436
11350SOL    HW144729   0.388   9.810   1.414
11350SOL    HW244730   0.510   9.759   1.510
11351SOL     OW44731   0.512   1.656   3.056
11351SOL    HW144732   0.466   1.691   2.974
11351SOL    HW244733   0.579   1.723   3.087
11352SOL     OW44734   4.558   2.475   3.380
11352SOL    HW144735   4.605   2.546   3.328
11352SOL    HW244736   4.485   2.435   3.324
11353SOL     OW44737   1.517   2.494   3.937
11353SOL    HW144738   1.550   2.472   4.029
11353SOL    HW244739   1.595   2.498   3.875
11354SOL     OW44740   6.189   8.125   2.056
11354SOL    HW144741   6.139   8.039   2.068
11354SOL    HW244742   6.276   8.121   2.105
11355SOL     OW44743   9.884   5.408   0.070
11355SOL    HW144744   9.954   5.353   0.115
11355SOL    HW244745   9.901   5.505   0.087
11356SOL     OW44746   0.896   4.877   3.673
11356SOL    HW144747   0.845   4.830   3.601
11356SOL    HW244748   0.863   4.847   3.763
11357SOL     OW44749   9.104   0.698   0.932
11357SOL    HW144750   9.031   0.665   0.872
11357SOL    HW244751   9.192   0.690   0.884
11358SOL     OW44752   8.201   6.489   0.915
11358SOL    HW144753   8.107   6.483   0.881
11358SOL    HW244754   8.234   6.398   0.938
11359SOL     OW44755   9.937   5.634   2.763
11359SOL    HW144756   9.843   5.660   2.741
11359SOL    HW244757   9.953   5.540   2.735
11360SOL     OW44758   0.308   7.380   1.471
11360SOL    HW144759   0.324   7.440   1.393
11360SOL    HW244760   0.320   7.431   1.556
11361SOL     OW44761   0.814   2.427   0.237
11361SOL    HW144762   0.751   2.496   0.273
11361SOL    HW244763   0.877   2.470   0.172
11362SOL     OW44764   9.851   9.217   1.418
11362SOL    HW144765   9.918   9.290   1.409
11362SOL    HW244766   9.890   9.131   1.383
11363SOL     OW44767   3.195   7.156   2.060
11363SOL    HW144768   3.103   7.169   2.097
11363SOL    HW244769   3.195   7.076   1.999
11364SOL     OW44770   1.062   2.220   3.213
11364SOL    HW144771   1.076   2.304   3.266
11364SOL    HW244772   1.010   2.154   3.268
11365SOL     OW44773   1.051   7.500   0.581
11365SOL    HW144774   1.063   7.417   0.635
11365SOL    HW244775   0.954   7.511   0.556
11366SOL     OW44776   1.297   6.598   0.802
11366SOL    HW144777   1.342   6.679   0.838
11366SOL    HW244778   1.350   6.561   0.726
11367SOL     OW44779   2.112   3.619   1.132
11367SOL    HW144780   2.173   3.697   1.118
11367SOL    HW244781   2.153   3.537   1.092
11368SOL     OW44782   5.990   7.236   2.444
11368SOL    HW144783   6.028   7.145   2.423
11368SOL    HW244784   5.916   7.226   2.510
11369SOL     OW44785   6.682   0.438   2.799
11369SOL    HW144786   6.692   0.521   2.744
11369SOL    HW244787   6.697   0.460   2.895
11370SOL     OW44788   1.128   3.605   1.501
11370SOL    HW144789   1.051   3.658   1.536
11370SOL    HW244790   1.156   3.643   1.412
11371SOL     OW44791   3.842   2.597   0.226
11371SOL    HW144792   3.768   2.663   0.214
11371SOL    HW244793   3.915   2.638   0.281
11372SOL     OW44794   3.273   1.952   3.630
11372SOL    HW144795   3.212   1.897   3.573
11372SOL    HW244796   3.276   1.914   3.723
11373SOL     OW44797   9.845   2.489   0.507
11373SOL    HW144798   9.857   2.457   0.601
11373SOL    HW244799   9.759   2.452   0.470
11374SOL     OW44800   9.079   0.758   0.434
11374SOL    HW144801   9.173   0.773   0.405
11374SOL    HW244802   9.066   0.794   0.527
11375SOL     OW44803   5.764   9.724   1.989
11375SOL    HW144804   5.752   9.738   2.088
11375SOL    HW244805   5.801   9.632   1.973
11376SOL     OW44806   2.056   5.103   1.069
11376SOL    HW144807   2.112   5.051   1.134
11376SOL    HW244808   1.959   5.080   1.083
11377SOL     OW44809   8.425   2.002   2.675
11377SOL    HW144810   8.450   2.005   2.579
11377SOL    HW244811   8.457   2.086   2.720
11378SOL     OW44812   0.180   4.460   1.387
11378SOL    HW144813   0.195   4.421   1.477
11378SOL    HW244814   0.082   4.474   1.372
11379SOL     OW44815   9.809   2.346   0.752
11379SOL    HW144816   9.743   2.309   0.687
11379SOL    HW244817   9.893   2.292   0.749
11380SOL     OW44818   8.915   7.995   2.316
11380SOL    HW144819   9.007   8.002   2.352
11380SOL    HW244820   8.878   7.904   2.337
11381SOL     OW44821   4.330   1.741   0.892
11381SOL    HW144822   4.266   1.700   0.828
11381SOL    HW244823   4.339   1.683   0.973
11382SOL     OW44824   8.541   4.284   4.082
11382SOL    HW144825   8.625   4.337   4.088
11382SOL    HW244826   8.560   4.195   4.040
11383SOL     OW44827   6.821   7.808   2.216
11383SOL    HW144828   6.768   7.882   2.256
11383SOL    HW244829   6.913   7.808   2.256
11384SOL     OW44830   0.375   8.661   3.561
11384SOL    HW144831   0.410   8.620   3.646
11384SOL    HW244832   0.308   8.732   3.584
11385SOL     OW44833   7.897   9.784   2.510
11385SOL    HW144834   7.978   9.793   2.567
11385SOL    HW244835   7.924   9.771   2.414
11386SOL     OW44836   6.151   8.027   1.598
11386SOL    HW144837   6.065   8.039   1.548
11386SOL    HW244838   6.225   8.069   1.546
11387SOL     OW44839   9.772   7.035   2.354
11387SOL    HW144840   9.712   6.996   2.284
11387SOL    HW244841   9.850   6.974   2.369
11388SOL     OW44842   6.084   7.751   3.934
11388SOL    HW144843   6.125   7.842   3.935
11388SOL    HW244844   6.155   7.683   3.953
11389SOL     OW44845   9.992   6.762   3.269
11389SOL    HW144846   0.015   6.826   3.196
11389SOL    HW244847   9.898   6.730   3.257
11390SOL     OW44848   3.440   7.112   2.990
11390SOL    HW144849   3.398   7.158   2.911
11390SOL    HW244850   3.539   7.110   2.978
11391SOL     OW44851   1.238   3.982   4.209
11391SOL    HW144852   1.251   3.941   4.299
11391SOL    HW244853   1.320   3.967   4.154
11392SOL     OW44854   5.834   8.966   3.744
11392SOL    HW144855   5.870   9.002   3.830
11392SOL    HW244856   5.797   8.875   3.760
11393SOL     OW44857   0.327   0.176   2.338
11393SOL    HW144858   0.282   0.260   2.308
11393SOL    HW244859   0.367   0.191   2.429
11394SOL     OW44860   7.057   8.399   3.268
11394SOL    HW144861   7.105   8.443   3.345
11394SOL    HW244862   6.964   8.375   3.296
11395SOL     OW44863   9.640   1.564   1.033
11395SOL    HW144864   9.563   1.572   0.970
11395SOL    HW244865   9.655   1.652   1.079
11396SOL     OW44866   0.097   4.219   3.495
11396SOL    HW144867   9.999   4.234   3.491
11396SOL    HW244868   0.135   4.214   3.402
11397SOL     OW44869   9.993   8.566   0.353
11397SOL    HW144870   0.069   8.577   0.417
11397SOL    HW244871   9.948   8.479   0.370
11398SOL     OW44872   8.993   0.469   3.894
11398SOL    HW144873   9.080   0.507   3.861
11398SOL    HW244874   8.989   0.372   3.871
11399SOL     OW44875   4.833   6.759   2.021
11399SOL    HW144876   4.846   6.838   2.081
11399SOL    HW244877   4.735   6.742   2.009
11400SOL     OW44878   9.882   7.801   1.840
11400SOL    HW144879   9.839   7.715   1.815
11400SOL    HW244880   9.980   7.786   1.853
11401SOL     OW44881   9.082   3.027   1.813
11401SOL    HW144882   9.092   3.126   1.802
11401SOL    HW244883   9.038   3.007   1.900
11402SOL     OW44884   5.466   0.985   3.328
11402SOL    HW144885   5.417   0.974   3.242
11402SOL    HW244886   5.482   0.895   3.369
11403SOL     OW44887   4.876   0.783   2.906
11403SOL    HW144888   4.907   0.770   2.812
11403SOL    HW244889   4.897   0.877   2.935
11404SOL     OW44890   1.669   4.502   3.653
11404SOL    HW144891   1.644   4.567   3.725
11404SOL    HW244892   1.619   4.417   3.666
11405SOL     OW44893   6.988   0.039   2.654
11405SOL    HW144894   7.033   9.977   2.718
11405SOL    HW244895   6.922   0.096   2.703
11406SOL     OW44896   0.750   2.664   4.212
11406SOL    HW144897   0.812   2.602   4.165
11406SOL    HW244898   0.803   2.734   4.260
11407SOL     OW44899   3.230   2.645   2.333
11407SOL    HW144900   3.210   2.598   2.419
11407SOL    HW244901   3.328   2.659   2.325
11408SOL     OW44902   0.040   8.331   1.564
11408SOL    HW144903   0.140   8.326   1.573
11408SOL    HW244904   9.998   8.303   1.651
11409SOL     OW44905   8.618   5.539   2.143
11409SOL    HW144906   8.705   5.517   2.099
11409SOL    HW244907   8.598   5.636   2.130
11410SOL     OW44908   6.367   7.174   2.979
11410SOL    HW144909   6.391   7.078   2.999
11410SOL    HW244910   6.384   7.193   2.882
11411SOL     OW44911   3.775   8.059   0.865
11411SOL    HW144912   3.822   8.078   0.951
11411SOL    HW244913   3.691   8.009   0.883
11412SOL     OW44914   7.632   1.449   1.769
11412SOL    HW144915   7.677   1.529   1.809
11412SOL    HW244916   7.575   1.405   1.839
11413SOL     OW44917   9.773   3.048   0.217
11413SOL    HW144918   9.749   3.082   0.308
11413SOL    HW244919   9.735   2.957   0.205
11414SOL     OW44920   5.684   8.205   2.569
11414SOL    HW144921   5.606   8.244   2.619
11414SOL    HW244922   5.758   8.273   2.565
11415SOL     OW44923   4.329   1.730   1.631
11415SOL    HW144924   4.295   1.716   1.538
11415SOL    HW244925   4.429   1.741   1.628
11416SOL     OW44926   0.841   4.123   4.074
11416SOL    HW144927   0.782   4.192   4.033
11416SOL    HW244928   0.891   4.076   4.001
11417SOL     OW44929   8.289   1.038   4.055
11417SOL    HW144930   8.199   0.996   4.045
11417SOL    HW244931   8.309   1.052   4.152
11418SOL     OW44932   8.924   7.505   1.769
11418SOL    HW144933   8.909   7.503   1.670
11418SOL    HW244934   8.965   7.419   1.798
11419SOL     OW44935   5.341   9.125   1.216
11419SOL    HW144936   5.342   9.028   1.242
11419SOL    HW244937   5.380   9.179   1.290
11420SOL     OW44938   1.307   6.159   0.926
11420SOL    HW144939   1.355   6.242   0.954
11420SOL    HW244940   1.273   6.112   1.008
11421SOL     OW44941   9.751   0.240   2.195
11421SOL    HW144942   9.835   0.226   2.144
11421SOL    HW244943   9.772   0.269   2.288
11422SOL     OW44944   0.883   2.101   2.760
11422SOL    HW144945   0.846   2.194   2.759
11422SOL    HW244946   0.879   2.062   2.667
11423SOL     OW44947   2.939   2.366   2.941
11423SOL    HW144948   3.016   2.350   2.880
11423SOL    HW244949   2.859   2.315   2.909
11424SOL     OW44950   5.950   6.613   2.373
11424SOL    HW144951   5.985   6.677   2.441
11424SOL    HW244952   6.027   6.563   2.333
11425SOL     OW44953   4.370   2.583   1.591
11425SOL    HW144954   4.446   2.518   1.594
11425SOL    HW244955   4.383   2.653   1.661
11426SOL     OW44956   0.346   1.442   2.560
11426SOL    HW144957   0.423   1.407   2.613
11426SOL    HW244958   0.367   1.534   2.527
11427SOL     OW44959   5.186   6.162   1.555
11427SOL    HW144960   5.186   6.251   1.601
11427SOL    HW244961   5.144   6.094   1.615
11428SOL     OW44962   3.730   7.983   2.066
11428SOL    HW144963   3.669   8.001   1.988
11428SOL    HW244964   3.822   7.963   2.032
11429SOL     OW44965   2.827   7.807   4.277
11429SOL    HW144966   2.781   7.774   4.359
11429SOL    HW244967   2.803   7.903   4.261
11430SOL     OW44968   2.805   4.011   3.914
11430SOL    HW144969   2.795   3.925   3.863
11430SOL    HW244970   2.750   4.082   3.870
11431SOL     OW44971   7.135   8.406   1.978
11431SOL    HW144972   7.118   8.482   1.915
11431SOL    HW244973   7.226   8.369   1.962
11432SOL     OW44974   9.122   7.840   3.692
11432SOL    HW144975   9.116   7.740   3.692
11432SOL    HW244976   9.124   7.873   3.786
11433SOL     OW44977   3.625   4.069   2.342
11433SOL    HW144978   3.631   3.969   2.346
11433SOL    HW244979   3.562   4.101   2.413
11434SOL     OW44980   8.106   5.395   4.384
11434SOL    HW144981   8.087   5.370   4.478
11434SOL    HW244982   8.171   5.330   4.345
11435SOL     OW44983   4.061   7.803   4.339
11435SOL    HW144984   3.982   7.750   4.369
11435SOL    HW244985   4.123   7.818   4.417
11436SOL     OW44986   9.249   8.420   2.965
11436SOL    HW144987   9.273   8.516   2.957
11436SOL    HW244988   9.237   8.381   2.874
11437SOL     OW44989   9.481   2.248   3.069
11437SOL    HW144990   9.451   2.275   2.978
11437SOL    HW244991   9.406   2.205   3.118
11438SOL     OW44992   4.049   3.072   2.067
11438SOL    HW144993   3.951   3.087   2.051
11438SOL    HW244994   4.066   3.065   2.165
11439SOL     OW44995   0.938   3.533   0.122
11439SOL    HW144996   0.863   3.589   0.088
11439SOL    HW244997   0.952   3.456   0.060
11440SOL     OW44998   3.081   8.721   2.063
11440SOL    HW144999   3.152   8.701   1.995
11440SOL    HW245000   3.051   8.635   2.105
11441SOL     OW45001   2.006   1.677   0.168
11441SOL    HW145002   1.943   1.754   0.167
11441SOL    HW245003   2.011   1.639   0.260
11442SOL     OW45004   0.310   8.971   1.854
11442SOL    HW145005   0.268   9.039   1.794
11442SOL    HW245006   0.289   8.879   1.821
11443SOL     OW45007   5.925   0.625   1.326
11443SOL    HW145008   5.891   0.663   1.412
11443SOL    HW245009   6.001   0.681   1.293
11444SOL     OW45010   4.728   8.901   0.281
11444SOL    HW145011   4.728   8.960   0.362
11444SOL    HW245012   4.634   8.886   0.250
11445SOL     OW45013   2.988   8.002   3.069
11445SOL    HW145014   2.980   7.932   3.140
11445SOL    HW245015   3.051   7.971   2.998
11446SOL     OW45016   0.742   5.073   4.291
11446SOL    HW145017   0.783   5.118   4.211
11446SOL    HW245018   0.806   5.077   4.367
11447SOL     OW45019   5.100   7.090   1.857
11447SOL    HW145020   5.068   7.131   1.943
11447SOL    HW245021   5.062   7.141   1.780
11448SOL     OW45022   2.373   8.896   0.117
11448SOL    HW145023   2.359   8.990   0.147
11448SOL    HW245024   2.471   8.878   0.110
11449SOL     OW45025   6.956   8.369   3.875
11449SOL    HW145026   6.880   8.430   3.898
11449SOL    HW245027   6.995   8.394   3.787
11450SOL     OW45028   0.035   0.972   0.110
11450SOL    HW145029   0.109   1.032   0.078
11450SOL    HW245030   9.961   1.028   0.149
11451SOL     OW45031   4.185   6.558   2.377
11451SOL    HW145032   4.133   6.544   2.292
11451SOL    HW245033   4.145   6.504   2.450
11452SOL     OW45034   1.544   0.025   0.819
11452SOL    HW145035   1.455   0.071   0.816
11452SOL    HW245036   1.603   0.070   0.886
11453SOL     OW45037   2.397   4.737   1.725
11453SOL    HW145038   2.328   4.707   1.659
11453SOL    HW245039   2.437   4.657   1.770
11454SOL     OW45040   0.165   8.631   2.446
11454SOL    HW145041   0.187   8.541   2.482
11454SOL    HW245042   0.210   8.644   2.358
11455SOL     OW45043   9.673   8.973   2.626
11455SOL    HW145044   9.705   9.059   2.587
11455SOL    HW245045   9.740   8.939   2.692
11456SOL     OW45046   0.751   1.982   0.986
11456SOL    HW145047   0.796   2.037   0.916
11456SOL    HW245048   0.660   1.956   0.956
11457SOL     OW45049   7.557   1.239   1.605
11457SOL    HW145050   7.578   1.155   1.655
11457SOL    HW245051   7.585   1.318   1.660
11458SOL     OW45052   2.124   2.177   1.813
11458SOL    HW145053   2.140   2.276   1.815
11458SOL    HW245054   2.097   2.146   1.904
11459SOL     OW45055   1.282   3.013   1.936
11459SOL    HW145056   1.307   3.109   1.920
11459SOL    HW245057   1.197   3.009   1.989
11460SOL     OW45058   0.944   5.883   1.031
11460SOL    HW145059   0.883   5.814   0.992
11460SOL    HW245060   1.039   5.852   1.022
11461SOL     OW45061   9.749   2.287   4.320
11461SOL    HW145062   9.799   2.203   4.344
11461SOL    HW245063   9.800   2.367   4.352
11462SOL     OW45064   3.124   7.961   0.194
11462SOL    HW145065   3.066   7.898   0.143
11462SOL    HW245066   3.125   8.050   0.147
11463SOL     OW45067   4.641   8.959   3.861
11463SOL    HW145068   4.736   8.979   3.886
11463SOL    HW245069   4.581   8.984   3.937
11464SOL     OW45070   7.794   2.775   1.106
11464SOL    HW145071   7.778   2.747   1.201
11464SOL    HW245072   7.708   2.801   1.064
11465SOL     OW45073   2.961   3.790   1.989
11465SOL    HW145074   2.887   3.849   1.956
11465SOL    HW245075   3.019   3.762   1.913
11466SOL     OW45076   3.093   4.324   1.731
11466SOL    HW145077   3.175   4.356   1.778
11466SOL    HW245078   3.118   4.285   1.642
11467SOL     OW45079   6.736   1.538   2.700
11467SOL    HW145080   6.740   1.637   2.689
11467SOL    HW245081   6.713   1.515   2.794
11468SOL     OW45082   1.186   3.113   3.432
11468SOL    HW145083   1.214   3.081   3.523
11468SOL    HW245084   1.265   3.153   3.386
11469SOL     OW45085   2.948   2.032   1.289
11469SOL    HW145086   2.877   2.026   1.219
11469SOL    HW245087   3.031   1.986   1.257
11470SOL     OW45088   9.647   4.674   0.487
11470SOL    HW145089   9.682   4.636   0.401
11470SOL    HW245090   9.594   4.756   0.468
11471SOL     OW45091   3.721   2.673   2.428
11471SOL    HW145092   3.800   2.682   2.487
11471SOL    HW245093   3.692   2.577   2.425
11472SOL     OW45094   9.989   4.018   0.575
11472SOL    HW145095   0.064   4.062   0.624
11472SOL    HW245096   9.978   4.060   0.485
11473SOL     OW45097   1.986   3.020   3.456
11473SOL    HW145098   2.070   2.983   3.414
11473SOL    HW245099   1.953   3.097   3.402
11474SOL     OW45100   2.532   2.937   5.632
11474SOL    HW145101   2.451   2.996   0.003
11474SOL    HW245102   2.564   2.934   5.537
11475SOL     OW45103   4.945   9.831   2.260
11475SOL    HW145104   4.940   9.918   2.309
11475SOL    HW245105   4.978   9.760   2.322
11476SOL     OW45106   2.721   7.312   2.116
11476SOL    HW145107   2.745   7.390   2.057
11476SOL    HW245108   2.666   7.247   2.064
11477SOL     OW45109   2.669   1.842   2.525
11477SOL    HW145110   2.693   1.938   2.508
11477SOL    HW245111   2.699   1.786   2.448
11478SOL     OW45112   8.217   7.193   1.072
11478SOL    HW145113   8.172   7.210   1.159
11478SOL    HW245114   8.149   7.173   1.001
11479SOL     OW45115   4.780   8.991   1.033
11479SOL    HW145116   4.765   9.033   0.944
11479SOL    HW245117   4.828   8.904   1.021
11480SOL     OW45118   8.042   2.387   1.124
11480SOL    HW145119   7.987   2.304   1.116
11480SOL    HW245120   8.130   2.366   1.167
11481SOL     OW45121   1.513   9.369   1.149
11481SOL    HW145122   1.437   9.318   1.189
11481SOL    HW245123   1.584   9.383   1.218
11482SOL     OW45124   3.444   0.279   4.224
11482SOL    HW145125   3.344   0.275   4.219
11482SOL    HW245126   3.472   0.370   4.253
11483SOL     OW45127   1.176   9.119   3.952
11483SOL    HW145128   1.262   9.083   3.988
11483SOL    HW245129   1.154   9.205   3.998
11484SOL     OW45130   0.642   4.862   4.153
11484SOL    HW145131   0.669   4.941   4.208
11484SOL    HW245132   0.548   4.836   4.175
11485SOL     OW45133   2.174   4.069   3.739
11485SOL    HW145134   2.186   4.138   3.811
11485SOL    HW245135   2.109   4.000   3.770
11486SOL     OW45136   0.142   2.287   3.017
11486SOL    HW145137   0.154   2.268   3.115
11486SOL    HW245138   0.223   2.333   2.981
11487SOL     OW45139   6.107   7.408   3.745
11487SOL    HW145140   6.042   7.337   3.773
11487SOL    HW245141   6.057   7.484   3.703
11488SOL     OW45142   1.351   2.461   2.357
11488SOL    HW145143   1.355   2.487   2.454
11488SOL    HW245144   1.425   2.397   2.337
11489SOL     OW45145   8.530   3.412   2.620
11489SOL    HW145146   8.621   3.376   2.642
11489SOL    HW245147   8.522   3.505   2.655
11490SOL     OW45148   2.523   0.265   1.845
11490SOL    HW145149   2.597   0.218   1.797
11490SOL    HW245150   2.438   0.254   1.794
11491SOL     OW45151   2.943   8.761   1.108
11491SOL    HW145152   2.949   8.848   1.158
11491SOL    HW245153   2.900   8.777   1.019
11492SOL     OW45154   8.943   1.014   2.582
11492SOL    HW145155   9.039   1.043   2.588
11492SOL    HW245156   8.906   1.002   2.674
11493SOL     OW45157   4.079   3.421   3.846
11493SOL    HW145158   4.002   3.364   3.876
11493SOL    HW245159   4.162   3.395   3.896
11494SOL     OW45160   9.960   6.526   3.556
11494SOL    HW145161   9.984   6.531   3.459
11494SOL    HW245162   9.957   6.430   3.584
11495SOL     OW45163   5.380   1.151   3.524
11495SOL    HW145164   5.415   1.083   3.459
11495SOL    HW245165   5.334   1.225   3.474
11496SOL     OW45166   9.939   8.983   1.282
11496SOL    HW145167   9.908   8.910   1.342
11496SOL    HW245168   9.874   8.995   1.207
11497SOL     OW45169   1.409   6.845   1.654
11497SOL    HW145170   1.437   6.885   1.742
11497SOL    HW245171   1.318   6.878   1.631
11498SOL     OW45172   1.445   0.673   3.145
11498SOL    HW145173   1.462   0.766   3.178
11498SOL    HW245174   1.394   0.676   3.059
11499SOL     OW45175   3.014   5.879   2.689
11499SOL    HW145176   3.017   5.815   2.765
11499SOL    HW245177   3.105   5.891   2.651
11500SOL     OW45178   1.074   6.204   0.783
11500SOL    HW145179   1.149   6.193   0.848
11500SOL    HW245180   1.098   6.160   0.697
11501SOL     OW45181   3.637   7.324   2.033
11501SOL    HW145182   3.661   7.351   2.126
11501SOL    HW245183   3.708   7.264   1.996
11502SOL     OW45184   6.047   0.095   3.854
11502SOL    HW145185   5.950   0.118   3.866
11502SOL    HW245186   6.099   0.130   3.932
11503SOL     OW45187   0.291   8.949   2.811
11503SOL    HW145188   0.233   8.924   2.889
11503SOL    HW245189   0.234   8.960   2.730
11504SOL     OW45190   2.168   1.996   0.221
11504SOL    HW145191   2.105   2.051   0.167
11504SOL    HW245192   2.196   1.915   0.170
11505SOL     OW45193   3.444   4.105   1.707
11505SOL    HW145194   3.446   4.203   1.725
11505SOL    HW245195   3.531   4.064   1.736
11506SOL     OW45196   1.837   8.580   3.283
11506SOL    HW145197   1.783   8.664   3.278
11506SOL    HW245198   1.798   8.519   3.351
11507SOL     OW45199   3.424   8.140   1.062
11507SOL    HW145200   3.462   8.072   0.999
11507SOL    HW245201   3.495   8.175   1.122
11508SOL     OW45202   2.571   1.542   1.892
11508SOL    HW145203   2.522   1.541   1.805
11508SOL    HW245204   2.616   1.630   1.904
11509SOL     OW45205   4.339   7.654   3.882
11509SOL    HW145206   4.294   7.689   3.963
11509SOL    HW245207   4.423   7.607   3.908
11510SOL     OW45208   0.453   6.999   3.712
11510SOL    HW145209   0.551   7.003   3.691
11510SOL    HW245210   0.439   6.943   3.794
11511SOL     OW45211   3.949   8.896   4.098
11511SOL    HW145212   3.924   8.985   4.059
11511SOL    HW245213   3.867   8.850   4.132
11512SOL     OW45214   5.423   7.917   4.296
11512SOL    HW145215   5.433   7.830   4.344
11512SOL    HW245216   5.512   7.961   4.289
11513SOL     OW45217   9.673   2.118   1.495
11513SOL    HW145218   9.715   2.030   1.473
11513SOL    HW245219   9.639   2.116   1.589
11514SOL     OW45220   0.216   7.940   3.068
11514SOL    HW145221   0.212   7.857   3.013
11514SOL    HW245222   0.229   7.916   3.164
11515SOL     OW45223   9.505   8.314   0.850
11515SOL    HW145224   9.552   8.243   0.901
11515SOL    HW245225   9.421   8.277   0.811
11516SOL     OW45226   9.003   5.029   2.570
11516SOL    HW145227   9.002   5.038   2.670
11516SOL    HW245228   9.046   5.109   2.529
11517SOL     OW45229   2.622   9.929   1.386
11517SOL    HW145230   2.537   9.942   1.334
11517SOL    HW245231   2.600   9.907   1.481
11518SOL     OW45232   3.458   4.342   0.390
11518SOL    HW145233   3.463   4.411   0.318
11518SOL    HW245234   3.424   4.383   0.474
11519SOL     OW45235   7.454   2.802   1.897
11519SOL    HW145236   7.463   2.841   1.806
11519SOL    HW245237   7.402   2.716   1.892
11520SOL     OW45238   2.888   9.403   3.337
11520SOL    HW145239   2.958   9.469   3.364
11520SOL    HW245240   2.932   9.318   3.306
11521SOL     OW45241   3.142   0.594   0.056
11521SOL    HW145242   3.087   0.606   5.607
11521SOL    HW245243   3.122   0.505   0.096
11522SOL     OW45244   7.397   2.428   2.848
11522SOL    HW145245   7.479   2.407   2.903
11522SOL    HW245246   7.407   2.518   2.807
11523SOL     OW45247   2.817   0.778   2.759
11523SOL    HW145248   2.838   0.871   2.790
11523SOL    HW245249   2.897   0.719   2.773
11524SOL     OW45250   4.885   9.039   3.964
11524SOL    HW145251   4.844   9.129   3.982
11524SOL    HW245252   4.983   9.049   3.951
11525SOL     OW45253   3.268   3.497   2.729
11525SOL    HW145254   3.256   3.398   2.738
11525SOL    HW245255   3.303   3.534   2.815
11526SOL     OW45256   7.096   9.715   1.635
11526SOL    HW145257   7.030   9.741   1.564
11526SOL    HW245258   7.074   9.762   1.720
11527SOL     OW45259   3.958   2.703   2.574
11527SOL    HW145260   3.958   2.603   2.577
11527SOL    HW245261   4.024   2.735   2.506
11528SOL     OW45262   2.359   8.174   3.477
11528SOL    HW145263   2.358   8.243   3.549
11528SOL    HW245264   2.392   8.087   3.514
11529SOL     OW45265   0.740   8.276   4.182
11529SOL    HW145266   0.737   8.269   4.082
11529SOL    HW245267   0.824   8.321   4.210
11530SOL     OW45268   8.979   2.347   3.912
11530SOL    HW145269   8.991   2.293   3.995
11530SOL    HW245270   8.954   2.287   3.836
11531SOL     OW45271   7.459   8.746   0.969
11531SOL    HW145272   7.443   8.819   1.035
11531SOL    HW245273   7.441   8.780   0.876
11532SOL     OW45274   4.036   2.718   0.390
11532SOL    HW145275   4.097   2.663   0.448
11532SOL    HW245276   3.971   2.768   0.448
11533SOL     OW45277   2.282   7.079   0.452
11533SOL    HW145278   2.240   7.154   0.503
11533SOL    HW245279   2.381   7.079   0.468
11534SOL     OW45280   1.008   0.009   3.658
11534SOL    HW145281   0.952   0.027   3.577
11534SOL    HW245282   1.099   0.049   3.645
11535SOL     OW45283   4.824   7.887   4.014
11535SOL    HW145284   4.791   7.812   4.072
11535SOL    HW245285   4.801   7.975   4.056
11536SOL     OW45286   4.962   9.824   0.828
11536SOL    HW145287   5.003   9.906   0.787
11536SOL    HW245288   5.034   9.759   0.850
11537SOL     OW45289   7.597   1.864   2.656
11537SOL    HW145290   7.646   1.926   2.717
11537SOL    HW245291   7.656   1.788   2.629
11538SOL     OW45292   8.553   5.807   2.125
11538SOL    HW145293   8.595   5.856   2.049
11538SOL    HW245294   8.586   5.845   2.211
11539SOL     OW45295   3.212   1.648   1.328
11539SOL    HW145296   3.303   1.641   1.369
11539SOL    HW245297   3.153   1.577   1.365
11540SOL     OW45298   9.449   7.391   2.384
11540SOL    HW145299   9.529   7.339   2.413
11540SOL    HW245300   9.376   7.379   2.452
11541SOL     OW45301   5.907   9.753   4.302
11541SOL    HW145302   5.856   9.729   4.219
11541SOL    HW245303   5.843   9.780   4.374
11542SOL     OW45304   2.029   9.828   1.157
11542SOL    HW145305   1.992   9.880   1.234
11542SOL    HW245306   1.961   9.763   1.125
11543SOL     OW45307   1.116   4.445   1.327
11543SOL    HW145308   1.078   4.358   1.359
11543SOL    HW245309   1.124   4.509   1.404
11544SOL     OW45310   4.775   9.886   3.406
11544SOL    HW145311   4.749   9.807   3.462
11544SOL    HW245312   4.765   9.864   3.309
11545SOL     OW45313   1.176   4.644   1.515
11545SOL    HW145314   1.109   4.651   1.590
11545SOL    HW245315   1.201   4.735   1.484
11546SOL     OW45316   9.173   0.360   2.658
11546SOL    HW145317   9.109   0.284   2.666
11546SOL    HW245318   9.236   0.360   2.736
11547SOL     OW45319   0.421   6.378   3.208
11547SOL    HW145320   0.396   6.388   3.304
11547SOL    HW245321   0.345   6.337   3.158
11548SOL     OW45322   8.733   6.964   3.189
11548SOL    HW145323   8.703   7.022   3.264
11548SOL    HW245324   8.755   7.021   3.110
11549SOL     OW45325   8.505   2.546   0.885
11549SOL    HW145326   8.520   2.645   0.884
11549SOL    HW245327   8.494   2.515   0.979
11550SOL     OW45328   0.020   0.671   2.676
11550SOL    HW145329   9.950   0.740   2.691
11550SOL    HW245330   0.110   0.714   2.677
11551SOL     OW45331   9.316   2.520   3.000
11551SOL    HW145332   9.294   2.475   3.086
11551SOL    HW245333   9.262   2.604   2.992
11552SOL     OW45334   8.867   1.891   1.248
11552SOL    HW145335   8.769   1.911   1.249
11552SOL    HW245336   8.904   1.911   1.157
11553SOL     OW45337   1.183   4.492   3.652
11553SOL    HW145338   1.229   4.573   3.615
11553SOL    HW245339   1.159   4.508   3.747
11554SOL     OW45340   0.453   2.483   1.850
11554SOL    HW145341   0.503   2.469   1.765
11554SOL    HW245342   0.496   2.558   1.901
11555SOL     OW45343   9.281   1.594   0.444
11555SOL    HW145344   9.223   1.599   0.363
11555SOL    HW245345   9.279   1.501   0.481
11556SOL     OW45346   2.987   3.376   0.836
11556SOL    HW145347   2.942   3.303   0.785
11556SOL    HW245348   2.920   3.425   0.891
11557SOL     OW45349   1.127   2.919   2.953
11557SOL    HW145350   1.124   2.998   2.891
11557SOL    HW245351   1.052   2.927   3.019
11558SOL     OW45352   7.941   3.521   2.118
11558SOL    HW145353   7.864   3.457   2.118
11558SOL    HW245354   7.932   3.583   2.196
11559SOL     OW45355   9.653   5.007   0.727
11559SOL    HW145356   9.745   5.032   0.699
11559SOL    HW245357   9.586   5.063   0.679
11560SOL     OW45358   8.758   0.923   1.974
11560SOL    HW145359   8.847   0.896   1.937
11560SOL    HW245360   8.756   0.903   2.072
11561SOL     OW45361   0.052   2.499   3.307
11561SOL    HW145362   9.957   2.511   3.280
11561SOL    HW245363   0.111   2.541   3.238
11562SOL     OW45364   5.414   7.769   3.843
11562SOL    HW145365   5.423   7.677   3.804
11562SOL    HW245366   5.428   7.837   3.772
11563SOL     OW45367   9.648   8.201   3.508
11563SOL    HW145368   9.579   8.270   3.488
11563SOL    HW245369   9.718   8.201   3.436
11564SOL     OW45370   6.844   9.499   2.941
11564SOL    HW145371   6.865   9.513   3.038
11564SOL    HW245372   6.924   9.524   2.886
11565SOL     OW45373   2.506   5.976   1.153
11565SOL    HW145374   2.513   6.017   1.062
11565SOL    HW245375   2.409   5.965   1.177
11566SOL     OW45376   8.097   1.345   4.169
11566SOL    HW145377   8.056   1.433   4.194
11566SOL    HW245378   8.179   1.330   4.224
11567SOL     OW45379   8.921   1.941   1.732
11567SOL    HW145380   8.846   1.996   1.768
11567SOL    HW245381   8.942   1.971   1.639
11568SOL     OW45382   3.962   7.248   2.631
11568SOL    HW145383   3.955   7.163   2.683
11568SOL    HW245384   3.886   7.308   2.655
11569SOL     OW45385   4.217   8.133   2.231
11569SOL    HW145386   4.271   8.207   2.272
11569SOL    HW245387   4.164   8.087   2.303
11570SOL     OW45388   0.012   7.370   0.883
11570SOL    HW145389   0.016   7.273   0.860
11570SOL    HW245390   9.922   7.406   0.860
11571SOL     OW45391   0.997   5.336   2.945
11571SOL    HW145392   1.089   5.315   2.912
11571SOL    HW245393   0.939   5.360   2.867
11572SOL     OW45394   3.428   0.012   3.224
11572SOL    HW145395   3.394   9.922   3.248
11572SOL    HW245396   3.513   0.003   3.171
11573SOL     OW45397   7.448   7.292   3.446
11573SOL    HW145398   7.401   7.205   3.432
11573SOL    HW245399   7.446   7.345   3.361
11574SOL     OW45400   0.782   9.659   0.329
11574SOL    HW145401   0.849   9.585   0.323
11574SOL    HW245402   0.814   9.726   0.396
11575SOL     OW45403   1.415   1.903   1.162
11575SOL    HW145404   1.325   1.905   1.205
11575SOL    HW245405   1.479   1.957   1.215
11576SOL     OW45406   3.278   3.933   1.887
11576SOL    HW145407   3.225   3.867   1.834
11576SOL    HW245408   3.322   3.997   1.824
11577SOL     OW45409   3.098   1.270   1.111
11577SOL    HW145410   3.107   1.178   1.149
11577SOL    HW245411   3.003   1.288   1.088
11578SOL     OW45412   4.509   1.463   1.436
11578SOL    HW145413   4.597   1.508   1.426
11578SOL    HW245414   4.523   1.365   1.453
11579SOL     OW45415   7.480   1.346   1.965
11579SOL    HW145416   7.392   1.392   1.956
11579SOL    HW245417   7.494   1.319   2.060
11580SOL     OW45418   2.246   3.578   0.195
11580SOL    HW145419   2.322   3.619   0.246
11580SOL    HW245420   2.170   3.642   0.191
11581SOL     OW45421   1.028   4.267   2.381
11581SOL    HW145422   1.118   4.282   2.423
11581SOL    HW245423   0.990   4.180   2.413
11582SOL     OW45424   1.017   8.519   1.450
11582SOL    HW145425   1.082   8.553   1.518
11582SOL    HW245426   0.946   8.588   1.434
11583SOL     OW45427   4.874   2.508   2.712
11583SOL    HW145428   4.929   2.424   2.710
11583SOL    HW245429   4.927   2.584   2.675
11584SOL     OW45430   0.955   9.044   3.225
11584SOL    HW145431   1.016   9.122   3.234
11584SOL    HW245432   0.888   9.062   3.153
11585SOL     OW45433   8.300   6.542   1.506
11585SOL    HW145434   8.221   6.508   1.557
11585SOL    HW245435   8.364   6.585   1.569
11586SOL     OW45436   0.212   1.917   2.177
11586SOL    HW145437   0.227   1.979   2.254
11586SOL    HW245438   0.297   1.905   2.126
11587SOL     OW45439   8.663   1.770   2.956
11587SOL    HW145440   8.742   1.801   2.902
11587SOL    HW245441   8.581   1.769   2.897
11588SOL     OW45442   2.470   4.850   1.188
11588SOL    HW145443   2.478   4.808   1.279
11588SOL    HW245444   2.532   4.804   1.124
11589SOL     OW45445   4.350   9.172   0.424
11589SOL    HW145446   4.295   9.251   0.451
11589SOL    HW245447   4.298   9.088   0.442
11590SOL     OW45448   9.553   8.064   2.857
11590SOL    HW145449   9.455   8.048   2.841
11590SOL    HW245450   9.582   8.145   2.807
11591SOL     OW45451   8.103   2.520   3.156
11591SOL    HW145452   8.059   2.608   3.172
11591SOL    HW245453   8.092   2.495   3.060
11592SOL     OW45454   5.430   0.190   3.900
11592SOL    HW145455   5.375   0.272   3.892
11592SOL    HW245456   5.405   0.125   3.828
11593SOL     OW45457   8.866   4.158   2.768
11593SOL    HW145458   8.797   4.172   2.839
11593SOL    HW245459   8.821   4.152   2.679
11594SOL     OW45460   8.176   3.383   2.137
11594SOL    HW145461   8.241   3.428   2.199
11594SOL    HW245462   8.095   3.440   2.129
11595SOL     OW45463   9.267   2.618   1.064
11595SOL    HW145464   9.300   2.553   1.133
11595SOL    HW245465   9.330   2.618   0.987
11596SOL     OW45466   4.383   9.267   2.589
11596SOL    HW145467   4.371   9.359   2.550
11596SOL    HW245468   4.346   9.266   2.682
11597SOL     OW45469   0.850   2.212   4.129
11597SOL    HW145470   0.894   2.210   4.219
11597SOL    HW245471   0.752   2.197   4.140
11598SOL     OW45472   9.024   4.788   0.634
11598SOL    HW145473   8.946   4.770   0.574
11598SOL    HW245474   8.995   4.779   0.729
11599SOL     OW45475   9.250   8.467   4.175
11599SOL    HW145476   9.229   8.422   4.262
11599SOL    HW245477   9.165   8.502   4.134
11600SOL     OW45478   0.538   5.093   0.364
11600SOL    HW145479   0.457   5.051   0.406
11600SOL    HW245480   0.593   5.022   0.319
11601SOL     OW45481   4.202   8.228   1.255
11601SOL    HW145482   4.171   8.133   1.260
11601SOL    HW245483   4.168   8.279   1.335
11602SOL     OW45484   6.438   9.352   1.857
11602SOL    HW145485   6.369   9.333   1.927
11602SOL    HW245486   6.468   9.448   1.866
11603SOL     OW45487   0.983   5.501   3.166
11603SOL    HW145488   1.077   5.530   3.182
11603SOL    HW245489   0.979   5.446   3.084
11604SOL     OW45490   9.505   6.235   2.276
11604SOL    HW145491   9.405   6.234   2.264
11604SOL    HW245492   9.544   6.152   2.237
11605SOL     OW45493   1.546   6.867   3.675
11605SOL    HW145494   1.506   6.876   3.767
11605SOL    HW245495   1.628   6.809   3.681
11606SOL     OW45496   4.566   7.532   3.985
11606SOL    HW145497   4.634   7.491   3.924
11606SOL    HW245498   4.550   7.470   4.062
11607SOL     OW45499   4.753   5.592   1.567
11607SOL    HW145500   4.761   5.680   1.519
11607SOL    HW245501   4.657   5.569   1.579
11608SOL     OW45502   0.069   8.208   4.284
11608SOL    HW145503   0.075   8.144   4.360
11608SOL    HW245504   0.112   8.295   4.309
11609SOL     OW45505   3.312   3.957   1.521
11609SOL    HW145506   3.362   4.005   1.593
11609SOL    HW245507   3.365   3.878   1.490
11610SOL     OW45508   3.257   5.802   1.230
11610SOL    HW145509   3.207   5.758   1.155
11610SOL    HW245510   3.355   5.786   1.218
11611SOL     OW45511   7.241   1.948   3.280
11611SOL    HW145512   7.252   1.917   3.185
11611SOL    HW245513   7.158   1.907   3.318
11612SOL     OW45514   2.213   5.014   2.312
11612SOL    HW145515   2.311   5.017   2.331
11612SOL    HW245516   2.194   4.947   2.241
11613SOL     OW45517   9.021   8.515   4.018
11613SOL    HW145518   9.071   8.474   3.942
11613SOL    HW245519   8.947   8.454   4.047
11614SOL     OW45520   5.571   1.735   2.180
11614SOL    HW145521   5.482   1.762   2.218
11614SOL    HW245522   5.581   1.636   2.186
11615SOL     OW45523   0.720   0.975   4.199
11615SOL    HW145524   0.740   0.911   4.273
11615SOL    HW245525   0.690   1.062   4.238
11616SOL     OW45526   9.762   8.034   1.215
11616SOL    HW145527   9.682   8.067   1.264
11616SOL    HW245528   9.844   8.045   1.272
11617SOL     OW45529   6.277   7.893   3.701
11617SOL    HW145530   6.300   7.986   3.729
11617SOL    HW245531   6.246   7.894   3.606
11618SOL     OW45532   3.051   5.545   1.746
11618SOL    HW145533   3.151   5.538   1.743
11618SOL    HW245534   3.023   5.635   1.715
11619SOL     OW45535   0.319   5.758   1.225
11619SOL    HW145536   0.358   5.849   1.235
11619SOL    HW245537   0.284   5.746   1.133
11620SOL     OW45538   4.052   1.718   0.254
11620SOL    HW145539   3.971   1.677   0.211
11620SOL    HW245540   4.062   1.812   0.221
11621SOL     OW45541   3.769   1.883   3.973
11621SOL    HW145542   3.835   1.932   3.916
11621SOL    HW245543   3.706   1.948   4.016
11622SOL     OW45544   1.762   5.537   2.415
11622SOL    HW145545   1.803   5.600   2.481
11622SOL    HW245546   1.680   5.578   2.375
11623SOL     OW45547   8.914   7.442   3.549
11623SOL    HW145548   8.947   7.474   3.461
11623SOL    HW245549   8.828   7.488   3.572
11624SOL     OW45550   3.568   3.703   0.107
11624SOL    HW145551   3.660   3.729   0.077
11624SOL    HW245552   3.506   3.781   0.098
11625SOL     OW45553   2.644   0.967   2.071
11625SOL    HW145554   2.567   0.982   2.010
11625SOL    HW245555   2.687   0.879   2.049
11626SOL     OW45556   9.693   4.908   2.295
11626SOL    HW145557   9.782   4.910   2.250
11626SOL    HW245558   9.646   4.823   2.272
11627SOL     OW45559   4.432   3.191   4.399
11627SOL    HW145560   4.478   3.276   4.370
11627SOL    HW245561   4.476   3.113   4.355
11628SOL     OW45562   9.178   5.241   3.624
11628SOL    HW145563   9.154   5.241   3.721
11628SOL    HW245564   9.260   5.187   3.610
11629SOL     OW45565   8.337   9.451   0.708
11629SOL    HW145566   8.340   9.550   0.721
11629SOL    HW245567   8.244   9.423   0.683
11630SOL     OW45568   3.548   3.058   3.042
11630SOL    HW145569   3.634   3.050   2.993
11630SOL    HW245570   3.490   2.979   3.022
11631SOL     OW45571   8.031   2.911   1.062
11631SOL    HW145572   7.945   2.863   1.079
11631SOL    HW245573   8.078   2.927   1.149
11632SOL     OW45574   0.329   2.810   1.733
11632SOL    HW145575   0.312   2.907   1.717
11632SOL    HW245576   0.421   2.786   1.701
11633SOL     OW45577   4.480   9.507   0.962
11633SOL    HW145578   4.522   9.597   0.973
11633SOL    HW245579   4.422   9.507   0.881
11634SOL     OW45580   1.463   1.338   3.326
11634SOL    HW145581   1.421   1.252   3.356
11634SOL    HW245582   1.457   1.345   3.226
11635SOL     OW45583   9.391   5.408   4.047
11635SOL    HW145584   9.371   5.470   3.971
11635SOL    HW245585   9.447   5.333   4.014
11636SOL     OW45586   2.455   2.216   0.075
11636SOL    HW145587   2.368   2.215   0.027
11636SOL    HW245588   2.440   2.196   0.172
11637SOL     OW45589   2.738   2.098   2.456
11637SOL    HW145590   2.718   2.187   2.496
11637SOL    HW245591   2.681   2.084   2.376
11638SOL     OW45592   5.547   0.137   3.503
11638SOL    HW145593   5.640   0.151   3.536
11638SOL    HW245594   5.543   0.053   3.449
11639SOL     OW45595   9.127   6.098   1.187
11639SOL    HW145596   9.225   6.080   1.180
11639SOL    HW245597   9.111   6.196   1.197
11640SOL     OW45598   4.437   9.824   0.096
11640SOL    HW145599   4.485   9.736   0.092
11640SOL    HW245600   4.339   9.809   0.108
11641SOL     OW45601   9.927   9.225   1.834
11641SOL    HW145602   0.002   9.284   1.803
11641SOL    HW245603   9.962   9.159   1.900
11642SOL     OW45604   8.056   9.407   1.413
11642SOL    HW145605   8.137   9.439   1.366
11642SOL    HW245606   8.072   9.409   1.512
11643SOL     OW45607   1.156   1.896   0.365
11643SOL    HW145608   1.068   1.934   0.395
11643SOL    HW245609   1.216   1.970   0.335
11644SOL     OW45610   4.170   7.967   0.830
11644SOL    HW145611   4.166   8.053   0.880
11644SOL    HW245612   4.130   7.894   0.886
11645SOL     OW45613   0.493   6.777   2.773
11645SOL    HW145614   0.487   6.806   2.868
11645SOL    HW245615   0.417   6.715   2.752
11646SOL     OW45616   8.101   1.474   0.055
11646SOL    HW145617   8.129   1.460   5.594
11646SOL    HW245618   8.178   1.455   0.116
11647SOL     OW45619   0.386   2.644   3.340
11647SOL    HW145620   0.418   2.558   3.378
11647SOL    HW245621   0.325   2.627   3.262
11648SOL     OW45622   2.857   2.127   0.383
11648SOL    HW145623   2.863   2.153   0.286
11648SOL    HW245624   2.920   2.183   0.436
11649SOL     OW45625   8.106   1.151   0.346
11649SOL    HW145626   8.043   1.225   0.325
11649SOL    HW245627   8.059   1.082   0.401
11650SOL     OW45628   9.491   0.566   2.186
11650SOL    HW145629   9.505   0.542   2.282
11650SOL    HW245630   9.491   0.483   2.130
11651SOL     OW45631   2.319   3.851   4.286
11651SOL    HW145632   2.414   3.823   4.303
11651SOL    HW245633   2.308   3.947   4.313
11652SOL     OW45634   9.615   9.602   0.573
11652SOL    HW145635   9.642   9.662   0.497
11652SOL    HW245636   9.611   9.656   0.658
11653SOL     OW45637   9.998   7.762   3.898
11653SOL    HW145638   0.046   7.713   3.971
11653SOL    HW245639   0.065   7.801   3.835
11654SOL     OW45640   2.637   0.701   3.458
11654SOL    HW145641   2.546   0.664   3.438
11654SOL    HW245642   2.692   0.631   3.505
11655SOL     OW45643   9.496   3.460   0.322
11655SOL    HW145644   9.446   3.460   0.236
11655SOL    HW245645   9.590   3.490   0.306
11656SOL     OW45646   3.352   2.760   3.615
11656SOL    HW145647   3.372   2.812   3.532
11656SOL    HW245648   3.253   2.763   3.632
11657SOL     OW45649   7.991   5.536   0.579
11657SOL    HW145650   8.004   5.627   0.618
11657SOL    HW245651   8.061   5.519   0.509
11658SOL     OW45652   1.758   1.705   1.715
11658SOL    HW145653   1.851   1.690   1.681
11658SOL    HW245654   1.720   1.618   1.746
11659SOL     OW45655   1.274   2.176   3.926
11659SOL    HW145656   1.194   2.130   3.962
11659SOL    HW245657   1.350   2.110   3.919
11660SOL     OW45658   2.758   9.477   3.109
11660SOL    HW145659   2.799   9.564   3.082
11660SOL    HW245660   2.799   9.447   3.195
11661SOL     OW45661   7.935   5.129   3.695
11661SOL    HW145662   7.900   5.091   3.781
11661SOL    HW245663   7.986   5.058   3.646
11662SOL     OW45664   0.311   4.895   3.706
11662SOL    HW145665   0.408   4.908   3.682
11662SOL    HW245666   0.261   4.861   3.627
11663SOL     OW45667   9.468   3.786   2.081
11663SOL    HW145668   9.415   3.716   2.128
11663SOL    HW245669   9.484   3.863   2.143
  10.00000  10.00000   5.63389
