chitosan Film  in water:acetic acid 2%
32655
    1CHTO  H203    1   6.271   6.379   3.189
    1CHTO   O82    2   6.231   6.303   3.227
    1CHTO  C123    3   6.331   6.203   3.254
    1CHTO  H227    4   6.405   6.245   3.323
    1CHTO   O77    5   6.255   6.097   3.318
    1CHTO  C118    6   6.333   5.990   3.372
    1CHTO  H222    7   6.398   6.028   3.452
    1CHTO  C125    8   6.227   5.892   3.435
    1CHTO   O84    9   6.286   5.784   3.506
    1CHTO  H205   10   6.219   5.729   3.541
    1CHTO  C114   11   6.416   5.921   3.262
    1CHTO  H218   12   6.349   5.861   3.200
    1CHTO  C116   13   6.489   6.021   3.166
    1CHTO  H220   14   6.581   6.058   3.218
    1CHTO   O79   15   6.534   5.947   3.052
    1CHTO  H201   16   6.586   6.001   2.996
    1CHTO  C120   17   6.398   6.144   3.125
    1CHTO  H224   18   6.320   6.104   3.056
    1CHTO   N21   19   6.476   6.246   3.049
    1CHTO  H211   20   6.473   6.222   2.943
    1CHTO  H212   21   6.436   6.345   3.066
    1CHTO   O75   22   6.506   5.836   3.334
    1CHTO  C112   23   6.542   5.695   3.265
    1CHTO  H216   24   6.520   5.700   3.157
    1CHTO   O73   25   6.461   5.595   3.330
    1CHTO  C113   26   6.487   5.461   3.287
    1CHTO  H217   27   6.472   5.456   3.177
    1CHTO  C124   28   6.385   5.365   3.350
    1CHTO   O83   29   6.386   5.365   3.493
    1CHTO  H204   30   6.466   5.328   3.524
    1CHTO  C109   31   6.632   5.420   3.321
    1CHTO  H213   32   6.641   5.424   3.431
    1CHTO  C110   33   6.732   5.519   3.255
    1CHTO  H214   34   6.730   5.502   3.147
    1CHTO   O78   35   6.866   5.488   3.299
    1CHTO  H200   36   6.892   5.404   3.267
    1CHTO  C111   37   6.696   5.667   3.286
    1CHTO  H215   38   6.718   5.687   3.392
    1CHTO   N19   39   6.777   5.763   3.207
    1CHTO  H207   40   6.762   5.747   3.101
    1CHTO  H208   41   6.882   5.752   3.231
    1CHTO   O74   42   6.655   5.283   3.276
    1CHTO  C115   43   6.759   5.204   3.361
    1CHTO  H219   44   6.813   5.269   3.431
    1CHTO   O76   45   6.691   5.096   3.451
    1CHTO  C122   46   6.604   5.011   3.375
    1CHTO  H226   47   6.515   5.069   3.350
    1CHTO  C126   48   6.555   4.894   3.467
    1CHTO   O85   49   6.478   4.941   3.578
    1CHTO  H206   50   6.450   4.868   3.630
    1CHTO  C121   51   6.673   4.954   3.243
    1CHTO  H225   52   6.659   4.844   3.241
    1CHTO   O81   53   6.605   5.007   3.128
    1CHTO  H202   54   6.633   4.964   3.050
    1CHTO  C119   55   6.826   4.986   3.237
    1CHTO  H223   56   6.869   4.929   3.320
    1CHTO  C117   57   6.860   5.139   3.258
    1CHTO  H221   58   6.850   5.200   3.168
    1CHTO   N20   59   7.003   5.158   3.301
    1CHTO  H209   60   7.025   5.263   3.309
    1CHTO  H210   61   7.069   5.112   3.228
    1CHTO   O80   62   6.897   4.923   3.115
    1CHTO  C103   63   6.915   4.772   3.108
    1CHTO  H190   64   6.891   4.725   3.203
    1CHTO  C101   65   6.835   4.700   2.992
    1CHTO  H188   66   6.848   4.757   2.900
    1CHTO   O68   67   6.684   4.700   3.028
    1CHTO  H168   68   6.635   4.666   2.956
    1CHTO   C99   69   6.891   4.552   2.967
    1CHTO  H186   70   6.874   4.491   3.058
    1CHTO   N17   71   6.825   4.480   2.853
    1CHTO  H174   72   6.719   4.475   2.870
    1CHTO  H175   73   6.847   4.531   2.760
    1CHTO   C97   74   7.045   4.559   2.949
    1CHTO  H184   75   7.068   4.617   2.859
    1CHTO   O64   76   7.104   4.617   3.067
    1CHTO  C104   77   7.071   4.755   3.085
    1CHTO  H191   78   7.101   4.813   2.998
    1CHTO  C108   79   7.153   4.810   3.203
    1CHTO   O71   80   7.127   4.741   3.326
    1CHTO  H171   81   7.159   4.653   3.321
    1CHTO   O62   82   7.108   4.429   2.941
    1CHTO   C91   83   7.246   4.428   2.902
    1CHTO  H178   84   7.278   4.531   2.883
    1CHTO   C92   85   7.261   4.354   2.765
    1CHTO  H179   86   7.188   4.394   2.693
    1CHTO   O66   87   7.390   4.382   2.710
    1CHTO  H166   88   7.397   4.473   2.688
    1CHTO   C93   89   7.247   4.197   2.779
    1CHTO  H180   90   7.293   4.153   2.689
    1CHTO   N16   91   7.107   4.148   2.777
    1CHTO  H172   92   7.038   4.230   2.764
    1CHTO  H173   93   7.083   4.093   2.866
    1CHTO   C94   94   7.327   4.145   2.907
    1CHTO  H181   95   7.260   4.112   2.987
    1CHTO   O61   96   7.410   4.247   2.964
    1CHTO   C95   97   7.342   4.364   3.012
    1CHTO  H182   98   7.283   4.336   3.100
    1CHTO  C106   99   7.452   4.463   3.061
    1CHTO   O69  100   7.395   4.574   3.131
    1CHTO  H169  101   7.463   4.631   3.160
    1CHTO   O63  102   7.417   4.020   2.859
    1CHTO   C96  103   7.557   4.009   2.926
    1CHTO  H183  104   7.546   4.036   3.031
    1CHTO   C98  105   7.664   4.105   2.863
    1CHTO  H185  106   7.623   4.206   2.852
    1CHTO   O67  107   7.775   4.120   2.954
    1CHTO  H167  108   7.747   4.164   3.032
    1CHTO  C102  109   7.718   4.052   2.722
    1CHTO  H189  110   7.807   4.112   2.700
    1CHTO   N18  111   7.627   4.072   2.607
    1CHTO  H176  112   7.536   4.121   2.638
    1CHTO  H177  113   7.676   4.131   2.530
    1CHTO  C105  114   7.764   3.905   2.735
    1CHTO  H192  115   7.787   3.865   2.636
    1CHTO   O65  116   7.665   3.817   2.795
    1CHTO  C100  117   7.601   3.857   2.919
    1CHTO  H187  118   7.509   3.796   2.926
    1CHTO  C107  119   7.688   3.817   3.041
    1CHTO   O70  120   7.705   3.675   3.050
    1CHTO  H170  121   7.760   3.645   2.980
    1CHTO   O57  122   7.897   3.914   2.819
    1CHTO   C85  123   8.024   3.870   2.769
    1CHTO  H157  124   8.038   3.921   2.671
    1CHTO   C83  125   8.020   3.716   2.737
    1CHTO  H155  126   7.956   3.702   2.650
    1CHTO   O56  127   7.957   3.648   2.847
    1CHTO  H135  128   7.944   3.558   2.825
    1CHTO   C81  129   8.162   3.664   2.703
    1CHTO  H153  130   8.199   3.718   2.616
    1CHTO   N14  131   8.164   3.522   2.660
    1CHTO  H141  132   8.098   3.508   2.577
    1CHTO  H142  133   8.132   3.459   2.740
    1CHTO   C79  134   8.260   3.693   2.823
    1CHTO  H151  135   8.360   3.659   2.792
    1CHTO   O52  136   8.270   3.838   2.841
    1CHTO   C86  137   8.141   3.902   2.870
    1CHTO  H158  138   8.116   3.867   2.972
    1CHTO   C90  139   8.161   4.055   2.880
    1CHTO   O60  140   8.250   4.088   2.988
    1CHTO  H138  141   8.259   4.181   2.993
    1CHTO   O50  142   8.226   3.628   2.947
    1CHTO   C73  143   8.274   3.578   3.073
    1CHTO  H145  144   8.370   3.526   3.059
    1CHTO   C74  145   8.172   3.475   3.132
    1CHTO  H146  146   8.158   3.397   3.056
    1CHTO   O54  147   8.232   3.411   3.246
    1CHTO  H133  148   8.175   3.345   3.279
    1CHTO   C75  149   8.037   3.550   3.165
    1CHTO  H147  150   7.994   3.588   3.072
    1CHTO   N13  151   7.931   3.462   3.221
    1CHTO  H139  152   7.965   3.419   3.315
    1CHTO  H140  153   7.841   3.519   3.240
    1CHTO   C76  154   8.065   3.678   3.258
    1CHTO  H148  155   8.092   3.644   3.358
    1CHTO   O49  156   8.171   3.762   3.203
    1CHTO   C77  157   8.294   3.692   3.178
    1CHTO  H149  158   8.330   3.648   3.272
    1CHTO   C88  159   8.404   3.790   3.136
    1CHTO   O58  160   8.431   3.889   3.242
    1CHTO  H136  161   8.498   3.948   3.214
    1CHTO   O51  162   7.938   3.772   3.257
    1CHTO   C78  163   7.902   3.839   3.395
    1CHTO  H150  164   7.992   3.849   3.459
    1CHTO   C80  165   7.797   3.752   3.469
    1CHTO  H152  166   7.717   3.725   3.396
    1CHTO   O55  167   7.862   3.630   3.509
    1CHTO  H134  168   7.929   3.647   3.572
    1CHTO   C84  169   7.732   3.827   3.592
    1CHTO  H156  170   7.809   3.838   3.669
    1CHTO   N15  171   7.620   3.748   3.655
    1CHTO  H143  172   7.580   3.802   3.739
    1CHTO  H144  173   7.542   3.733   3.583
    1CHTO   C87  174   7.687   3.968   3.550
    1CHTO  H159  175   7.606   3.960   3.477
    1CHTO   O53  176   7.805   4.041   3.489
    1CHTO   C82  177   7.849   3.981   3.367
    1CHTO  H154  178   7.768   3.979   3.294
    1CHTO   C89  179   7.960   4.073   3.309
    1CHTO   O59  180   7.995   4.037   3.175
    1CHTO  H137  181   8.064   4.092   3.145
    1CHTO   O45  182   7.639   4.056   3.677
    1CHTO   C67  183   7.528   4.142   3.649
    1CHTO  H124  184   7.471   4.107   3.563
    1CHTO   C65  185   7.435   4.148   3.773
    1CHTO  H122  186   7.420   4.045   3.804
    1CHTO   O44  187   7.308   4.204   3.735
    1CHTO  H102  188   7.247   4.197   3.805
    1CHTO   C63  189   7.509   4.219   3.892
    1CHTO  H120  190   7.603   4.167   3.910
    1CHTO   N11  191   7.441   4.208   4.025
    1CHTO  H108  192   7.349   4.262   4.024
    1CHTO  H109  193   7.504   4.247   0.061
    1CHTO   C61  194   7.546   4.367   3.849
    1CHTO  H118  195   7.613   4.404   3.928
    1CHTO   O40  196   7.624   4.368   3.725
    1CHTO   C68  197   7.582   4.287   3.609
    1CHTO  H125  198   7.673   4.272   3.548
    1CHTO   C72  199   7.482   4.368   3.522
    1CHTO   O48  200   7.448   4.301   3.399
    1CHTO  H105  201   7.388   4.354   3.351
    1CHTO   O38  202   7.432   4.454   3.832
    1CHTO   C55  203   7.437   4.586   3.893
    1CHTO  H112  204   7.535   4.602   3.941
    1CHTO   C56  205   7.317   4.600   3.996
    1CHTO  H113  206   7.226   4.564   3.945
    1CHTO   O42  207   7.339   4.510   0.065
    1CHTO  H100  208   7.265   4.510   0.123
    1CHTO   C57  209   7.298   4.749   0.005
    1CHTO  H114  210   7.385   4.774   0.066
    1CHTO   N10  211   7.178   4.769   0.091
    1CHTO  H106  212   7.159   4.679   0.149
    1CHTO  H107  213   7.092   4.791   0.031
    1CHTO   C58  214   7.295   4.843   3.923
    1CHTO  H115  215   7.205   4.820   3.860
    1CHTO   O37  216   7.414   4.826   3.844
    1CHTO   C59  217   7.427   4.697   3.783
    1CHTO  H116  218   7.341   4.678   3.718
    1CHTO   C70  219   7.553   4.699   3.696
    1CHTO   O46  220   7.542   4.788   3.585
    1CHTO  H103  221   7.540   4.877   3.615
    1CHTO   O39  222   7.292   5.000   3.968
    1CHTO   C60  223   7.246   5.090   3.865
    1CHTO  H117  224   7.272   5.050   3.767
    1CHTO   C62  225   7.091   5.109   3.869
    1CHTO  H119  226   7.047   5.009   3.846
    1CHTO   O43  227   7.051   5.148   4.001
    1CHTO  H101  228   6.958   5.154   4.006
    1CHTO   C66  229   7.047   5.214   3.755
    1CHTO  H123  230   7.082   5.177   3.658
    1CHTO   N12  231   6.899   5.226   3.742
    1CHTO  H110  232   6.857   5.261   3.835
    1CHTO  H111  233   6.874   5.292   3.661
    1CHTO   C69  234   7.116   5.350   3.782
    1CHTO  H126  235   7.086   5.389   3.882
    1CHTO   O41  236   7.270   5.328   3.778
    1CHTO   C64  237   7.320   5.226   3.880
    1CHTO  H121  238   7.304   5.264   3.983
    1CHTO   C71  239   7.472   5.205   3.859
    1CHTO   O47  240   7.544   5.326   3.886
    1CHTO  H104  241   7.635   5.312   3.867
    1CHTO   O34  242   7.079   5.459   3.673
    1CHTO   C49  243   7.153   5.588   3.629
    1CHTO   H91  244   7.257   5.561   3.613
    1CHTO   C47  245   7.143   5.694   3.741
    1CHTO   H89  246   7.207   5.780   3.709
    1CHTO   O33  247   7.199   5.640   3.862
    1CHTO   H70  248   7.291   5.625   3.852
    1CHTO   C45  249   6.990   5.741   3.755
    1CHTO   H87  250   6.929   5.652   3.772
    1CHTO    N8  251   6.970   5.834   3.869
    1CHTO   H75  252   6.905   5.789   3.943
    1CHTO   H76  253   6.928   5.928   3.836
    1CHTO   C43  254   6.940   5.802   3.614
    1CHTO   H85  255   6.834   5.822   3.626
    1CHTO   O29  256   6.964   5.708   3.507
    1CHTO   C50  257   7.093   5.644   3.497
    1CHTO   H92  258   7.081   5.558   3.430
    1CHTO   C54  259   7.196   5.732   3.420
    1CHTO   O36  260   7.153   5.758   3.286
    1CHTO   H72  261   7.079   5.816   3.287
    1CHTO   O27  262   7.000   5.929   3.584
    1CHTO   C37  263   6.990   6.038   3.491
    1CHTO   H79  264   7.013   6.003   3.389
    1CHTO   C38  265   6.847   6.100   3.488
    1CHTO   H80  266   6.819   6.128   3.590
    1CHTO   O31  267   6.756   5.998   3.442
    1CHTO   H68  268   6.668   6.029   3.447
    1CHTO   C39  269   6.841   6.228   3.394
    1CHTO   H81  270   6.858   6.193   3.292
    1CHTO    N7  271   6.707   6.296   3.395
    1CHTO   H73  272   6.714   6.397   3.433
    1CHTO   H74  273   6.635   6.239   3.452
    1CHTO   C40  274   6.959   6.328   3.429
    1CHTO   H82  275   6.937   6.375   3.526
    1CHTO   O26  276   7.084   6.257   3.433
    1CHTO   C41  277   7.091   6.149   3.530
    1CHTO   H83  278   7.066   6.188   3.630
    1CHTO   C52  279   7.237   6.097   3.535
    1CHTO   O35  280   7.332   6.200   3.583
    1CHTO   H71  281   7.314   6.219   3.673
    1CHTO   O28  282   6.971   6.437   3.335
    1CHTO   C42  283   7.053   6.435   3.212
    1CHTO   H84  284   7.066   6.329   3.188
    1CHTO   C44  285   7.196   6.496   3.222
    1CHTO   H86  286   7.187   6.604   3.240
    1CHTO   O32  287   7.263   6.438   3.335
    1CHTO   H69  288   7.346   6.480   3.349
    1CHTO   C48  289   7.278   6.475   3.088
    1CHTO   H90  290   7.295   6.368   3.076
    1CHTO    N9  291   7.414   6.538   3.092
    1CHTO   H77  292   7.471   6.496   3.174
    1CHTO   H78  293   7.466   6.522   2.999
    1CHTO   C51  294   7.194   6.525   2.963
    1CHTO   H93  295   7.190   6.634   2.969
    1CHTO   O30  296   7.063   6.466   2.963
    1CHTO   C46  297   6.983   6.501   3.089
    1CHTO   H88  298   6.984   6.610   3.102
    1CHTO   C53  299   6.837   6.455   3.068
    1CHTO   O72  300   6.828   6.314   3.046
    1CHTO  H199  301   6.864   6.293   2.962
    1CHTO   O22  302   7.256   6.483   2.840
    1CHTO   C31  303   7.215   6.525   2.705
    1CHTO   H59  304   7.110   6.491   2.693
    1CHTO   C29  305   7.216   6.678   2.680
    1CHTO   H57  306   7.312   6.716   2.719
    1CHTO   O21  307   7.113   6.739   2.760
    1CHTO   H37  308   7.028   6.713   2.730
    1CHTO   C27  309   7.202   6.720   2.528
    1CHTO   H55  310   7.099   6.699   2.495
    1CHTO    N5  311   7.230   6.864   2.505
    1CHTO   H43  312   7.214   6.889   2.401
    1CHTO   H44  313   7.166   6.924   2.568
    1CHTO   C25  314   7.295   6.630   2.440
    1CHTO   H53  315   7.400   6.649   2.467
    1CHTO   O17  316   7.263   6.490   2.465
    1CHTO   C32  317   7.298   6.448   2.598
    1CHTO   H60  318   7.404   6.467   2.615
    1CHTO   C36  319   7.274   6.296   2.609
    1CHTO   O25  320   7.359   6.223   2.519
    1CHTO   H40  321   7.343   6.131   2.528
    1CHTO   O15  322   7.277   6.658   2.289
    1CHTO   C19  323   7.307   6.585   2.167
    1CHTO   H47  324   7.299   6.661   2.088
    1CHTO   C20  325   7.450   6.522   2.161
    1CHTO   H48  326   7.465   6.447   2.241
    1CHTO   O19  327   7.545   6.629   2.182
    1CHTO   H35  328   7.541   6.660   2.270
    1CHTO   C21  329   7.476   6.451   2.022
    1CHTO   H49  330   7.480   6.528   1.945
    1CHTO    N4  331   7.605   6.379   2.015
    1CHTO   H41  332   7.687   6.448   2.029
    1CHTO   H42  333   7.610   6.303   2.092
    1CHTO   C22  334   7.356   6.359   1.985
    1CHTO   H50  335   7.359   6.269   2.047
    1CHTO   O14  336   7.229   6.425   2.002
    1CHTO   C23  337   7.203   6.475   2.133
    1CHTO   H51  338   7.208   6.391   2.204
    1CHTO   C34  339   7.060   6.532   2.137
    1CHTO   O23  340   6.963   6.429   2.116
    1CHTO   H38  341   6.877   6.466   2.122
    1CHTO   O16  342   7.358   6.327   1.845
    1CHTO   C24  343   7.290   6.189   1.807
    1CHTO   H52  344   7.240   6.143   1.892
    1CHTO   C26  345   7.400   6.094   1.754
    1CHTO   H54  346   7.459   6.149   1.676
    1CHTO   O20  347   7.489   6.065   1.863
    1CHTO   H36  348   7.563   6.015   1.833
    1CHTO   C30  349   7.341   5.965   1.690
    1CHTO   H58  350   7.302   5.899   1.770
    1CHTO    N6  351   7.447   5.886   1.621
    1CHTO   H45  352   7.489   5.944   1.540
    1CHTO   H46  353   7.405   5.795   1.581
    1CHTO   C33  354   7.220   5.996   1.596
    1CHTO   H61  355   7.256   6.047   1.505
    1CHTO   O18  356   7.127   6.083   1.663
    1CHTO   C28  357   7.182   6.211   1.698
    1CHTO   H56  358   7.230   6.256   1.610
    1CHTO   C35  359   7.069   6.306   1.743
    1CHTO   O24  360   6.995   6.257   1.855
    1CHTO   H39  361   6.929   6.319   1.879
    1CHTO    O9  362   7.156   5.875   1.550
    1CHTO   C13  363   7.022   5.899   1.462
    1CHTO   H26  364   7.019   6.005   1.429
    1CHTO   C11  365   6.896   5.861   1.551
    1CHTO   H24  366   6.875   5.946   1.617
    1CHTO    O8  367   6.925   5.747   1.634
    1CHTO    H3  368   6.945   5.672   1.581
    1CHTO    C9  369   6.774   5.836   1.457
    1CHTO   H22  370   6.770   5.924   1.391
    1CHTO    N2  371   6.643   5.835   1.526
    1CHTO   H10  372   6.655   5.838   1.633
    1CHTO   H11  373   6.584   5.749   1.496
    1CHTO    C7  374   6.805   5.709   1.368
    1CHTO   H20  375   6.747   5.726   1.275
    1CHTO    O4  376   6.945   5.694   1.335
    1CHTO   C14  377   7.025   5.813   1.326
    1CHTO   H27  378   6.984   5.876   1.244
    1CHTO   C18  379   7.167   5.770   1.283
    1CHTO   O13  380   7.251   5.884   1.259
    1CHTO    H7  381   7.337   5.855   1.234
    1CHTO    O2  382   6.756   5.569   1.439
    1CHTO    C1  383   6.741   5.459   1.348
    1CHTO   H14  384   6.785   5.485   1.249
    1CHTO    C2  385   6.590   5.417   1.327
    1CHTO   H15  386   6.548   5.401   1.427
    1CHTO    O6  387   6.521   5.527   1.264
    1CHTO    H1  388   6.556   5.544   1.178
    1CHTO    C3  389   6.578   5.282   1.240
    1CHTO   H16  390   6.611   5.304   1.137
    1CHTO    N1  391   6.436   5.233   1.233
    1CHTO    H8  392   6.427   5.135   1.277
    1CHTO    H9  393   6.403   5.230   1.130
    1CHTO    C4  394   6.678   5.173   1.295
    1CHTO   H17  395   6.642   5.137   1.391
    1CHTO    O1  396   6.811   5.227   1.308
    1CHTO    C5  397   6.822   5.336   1.400
    1CHTO   H18  398   6.783   5.307   1.498
    1CHTO   C16  399   6.974   5.364   1.414
    1CHTO   O11  400   7.002   5.453   1.524
    1CHTO    H5  401   7.094   5.468   1.529
    1CHTO    O3  402   6.691   5.065   1.200
    1CHTO    C6  403   6.721   4.933   1.256
    1CHTO   H19  404   6.760   4.937   1.357
    1CHTO    C8  405   6.590   4.847   1.259
    1CHTO   H21  406   6.543   4.852   1.161
    1CHTO    O7  407   6.503   4.905   1.358
    1CHTO    H2  408   6.472   4.989   1.328
    1CHTO   C12  409   6.621   4.695   1.292
    1CHTO   H25  410   6.660   4.693   1.397
    1CHTO    N3  411   6.498   4.610   1.290
    1CHTO   H12  412   6.452   4.614   1.192
    1CHTO   H13  413   6.429   4.643   1.366
    1CHTO   C15  414   6.734   4.644   1.197
    1CHTO   H28  415   6.701   4.641   1.093
    1CHTO   O10  416   6.791   4.506   1.237
    1CHTO    H4  417   6.725   4.440   1.228
    1CHTO    O5  418   6.850   4.728   1.209
    1CHTO   C10  419   6.830   4.864   1.168
    1CHTO   H23  420   6.802   4.866   1.063
    1CHTO   C17  421   6.968   4.931   1.181
    1CHTO   O12  422   6.972   5.063   1.127
    1CHTO    H6  423   7.058   5.099   1.137
    2CHTO  H203  424   5.819   3.059   0.155
    2CHTO   O82  425   5.726   3.076   0.157
    2CHTO  C123  426   5.691   3.163   0.048
    2CHTO  H227  427   5.719   3.114   3.994
    2CHTO   O77  428   5.546   3.173   0.058
    2CHTO  C118  429   5.483   3.240   3.989
    2CHTO  H222  430   5.505   3.186   3.895
    2CHTO  C125  431   5.328   3.236   4.014
    2CHTO   O84  432   5.277   3.102   4.023
    2CHTO  H205  433   5.310   3.060   0.060
    2CHTO  C114  434   5.533   3.386   3.979
    2CHTO  H218  435   5.494   3.442   0.024
    2CHTO  C116  436   5.689   3.395   3.983
    2CHTO  H220  437   5.729   3.361   3.884
    2CHTO   O79  438   5.724   3.534   3.995
    2CHTO  H201  439   5.818   3.544   3.990
    2CHTO  C120  440   5.751   3.307   0.058
    2CHTO  H224  441   5.721   3.354   0.154
    2CHTO   N21  442   5.900   3.308   0.052
    2CHTO  H211  443   5.938   3.391   0.110
    2CHTO  H212  444   5.940   3.215   0.090
    2CHTO   O75  445   5.480   3.437   3.856
    2CHTO  C112  446   5.348   3.535   3.864
    2CHTO  H216  447   5.314   3.542   3.969
    2CHTO   O73  448   5.248   3.475   3.780
    2CHTO  C113  449   5.128   3.552   3.764
    2CHTO  H217  450   5.086   3.575   3.865
    2CHTO  C124  451   5.024   3.468   3.689
    2CHTO   O83  452   4.985   3.350   3.762
    2CHTO  H204  453   4.936   3.375   3.838
    2CHTO  C109  454   5.163   3.682   3.689
    2CHTO  H213  455   5.209   3.653   3.594
    2CHTO  C110  456   5.263   3.764   3.776
    2CHTO  H214  457   5.212   3.795   3.867
    2CHTO   O78  458   5.300   3.885   3.707
    2CHTO  H200  459   5.343   3.865   3.625
    2CHTO  C111  460   5.389   3.678   3.811
    2CHTO  H215  461   5.447   3.663   3.719
    2CHTO   N19  462   5.479   3.746   3.907
    2CHTO  H207  463   5.579   3.756   3.865
    2CHTO  H208  464   5.484   3.694   4.002
    2CHTO   O74  465   5.041   3.758   3.662
    2CHTO  C115  466   5.051   3.845   3.529
    2CHTO  H219  467   5.155   3.857   3.496
    2CHTO   O76  468   4.979   3.777   3.410
    2CHTO  C122  469   4.842   3.745   3.439
    2CHTO  H226  470   4.842   3.656   3.502
    2CHTO  C126  471   4.772   3.701   3.305
    2CHTO   O85  472   4.834   3.586   3.245
    2CHTO  H206  473   4.789   3.564   3.166
    2CHTO  C121  474   4.763   3.863   3.510
    2CHTO  H225  475   4.666   3.877   3.457
    2CHTO   O81  476   4.731   3.826   3.644
    2CHTO  H202  477   4.809   3.814   3.695
    2CHTO  C119  478   4.842   3.998   3.505
    2CHTO  H223  479   4.849   4.021   3.398
    2CHTO  C117  480   4.988   3.986   3.563
    2CHTO  H221  481   4.993   3.993   3.672
    2CHTO   N20  482   5.075   4.098   3.515
    2CHTO  H209  483   5.032   4.193   3.542
    2CHTO  H210  484   5.087   4.092   3.408
    2CHTO   O80  485   4.758   4.120   3.559
    2CHTO  C103  486   4.733   4.241   3.468
    2CHTO  H190  487   4.819   4.258   3.403
    2CHTO  C101  488   4.603   4.236   3.381
    2CHTO  H188  489   4.517   4.219   3.446
    2CHTO   O68  490   4.612   4.117   3.283
    2CHTO  H168  491   4.682   4.130   3.223
    2CHTO   C99  492   4.582   4.375   3.305
    2CHTO  H186  493   4.667   4.392   3.236
    2CHTO   N17  494   4.456   4.382   3.222
    2CHTO  H174  495   4.453   4.299   3.153
    2CHTO  H175  496   4.451   4.476   3.170
    2CHTO   C97  497   4.588   4.491   3.408
    2CHTO  H184  498   4.498   4.487   3.471
    2CHTO   O64  499   4.709   4.486   3.486
    2CHTO  C104  500   4.724   4.366   3.564
    2CHTO  H191  501   4.640   4.352   3.633
    2CHTO  C108  502   4.849   4.380   3.653
    2CHTO   O71  503   4.834   4.487   3.747
    2CHTO  H171  504   4.911   4.493   3.800
    2CHTO   O62  505   4.598   4.620   3.343
    2CHTO   C91  506   4.552   4.733   3.419
    2CHTO  H178  507   4.513   4.697   3.515
    2CHTO   C92  508   4.429   4.795   3.343
    2CHTO  H179  509   4.365   4.715   3.304
    2CHTO   O66  510   4.349   4.865   3.440
    2CHTO  H166  511   4.269   4.893   3.401
    2CHTO   C93  512   4.471   4.897   3.230
    2CHTO  H180  513   4.379   4.950   3.201
    2CHTO   N16  514   4.518   4.833   3.105
    2CHTO  H172  515   4.439   4.772   3.063
    2CHTO  H173  516   4.605   4.772   3.125
    2CHTO   C94  517   4.575   5.003   3.286
    2CHTO  H181  518   4.666   5.008   3.226
    2CHTO   O61  519   4.616   4.977   3.422
    2CHTO   C95  520   4.663   4.843   3.445
    2CHTO  H182  521   4.748   4.823   3.379
    2CHTO  C106  522   4.720   4.835   3.591
    2CHTO   O69  523   4.620   4.868   3.689
    2CHTO  H169  524   4.658   4.861   3.775
    2CHTO   O63  525   4.506   5.138   3.287
    2CHTO   C96  526   4.600   5.264   3.274
    2CHTO  H183  527   4.673   5.243   3.196
    2CHTO   C98  528   4.676   5.304   3.404
    2CHTO  H185  529   4.608   5.296   3.490
    2CHTO   O67  530   4.779   5.206   3.428
    2CHTO  H167  531   4.741   5.123   3.448
    2CHTO  C102  532   4.741   5.451   3.398
    2CHTO  H189  533   4.825   5.444   3.327
    2CHTO   N18  534   4.801   5.498   3.526
    2CHTO  H176  535   4.725   5.504   3.603
    2CHTO  H177  536   4.846   5.595   3.512
    2CHTO  C105  537   4.638   5.551   3.340
    2CHTO  H192  538   4.557   5.564   3.411
    2CHTO   O65  539   4.585   5.504   3.215
    2CHTO  C100  540   4.510   5.382   3.224
    2CHTO  H187  541   4.428   5.396   3.296
    2CHTO  C107  542   4.448   5.353   3.086
    2CHTO   O70  543   4.356   5.457   3.049
    2CHTO  H170  544   4.320   5.438   2.964
    2CHTO   O57  545   4.711   5.690   3.315
    2CHTO   C85  546   4.639   5.809   3.278
    2CHTO  H157  547   4.549   5.812   3.343
    2CHTO   C83  548   4.586   5.801   3.131
    2CHTO  H155  549   4.502   5.730   3.129
    2CHTO   O56  550   4.687   5.745   3.045
    2CHTO  H135  551   4.653   5.729   2.960
    2CHTO   C81  552   4.534   5.940   3.083
    2CHTO  H153  553   4.455   5.971   3.151
    2CHTO   N14  554   4.470   5.937   2.950
    2CHTO  H141  555   4.541   5.910   2.875
    2CHTO  H142  556   4.390   5.866   2.949
    2CHTO   C79  557   4.651   6.045   3.094
    2CHTO  H151  558   4.610   6.141   3.061
    2CHTO   O52  559   4.687   6.061   3.234
    2CHTO   C86  560   4.730   5.937   3.299
    2CHTO  H158  561   4.832   5.919   3.259
    2CHTO   C90  562   4.749   5.962   3.451
    2CHTO   O60  563   4.851   6.059   3.477
    2CHTO  H138  564   4.935   6.022   3.456
    2CHTO   O50  565   4.767   6.015   3.014
    2CHTO   C73  566   4.871   6.087   2.944
    2CHTO  H145  567   4.840   6.191   2.927
    2CHTO   C74  568   4.897   6.020   2.805
    2CHTO  H146  569   4.801   6.019   2.751
    2CHTO   O54  570   4.985   6.106   2.729
    2CHTO  H133  571   4.942   6.186   2.708
    2CHTO   C75  572   4.954   5.874   2.826
    2CHTO  H147  573   4.879   5.815   2.881
    2CHTO   N13  574   4.979   5.801   2.699
    2CHTO  H139  575   4.922   5.709   2.697
    2CHTO  H140  576   5.084   5.778   2.687
    2CHTO   C76  577   5.084   5.881   2.920
    2CHTO  H148  578   5.161   5.936   2.867
    2CHTO   O49  579   5.052   5.952   3.045
    2CHTO   C77  580   5.005   6.086   3.024
    2CHTO  H149  581   5.080   6.142   2.968
    2CHTO   C88  582   4.995   6.157   3.160
    2CHTO   O58  583   4.953   6.299   3.145
    2CHTO  H136  584   5.022   6.348   3.103
    2CHTO   O51  585   5.134   5.730   2.959
    2CHTO   C78  586   5.230   5.716   3.083
    2CHTO  H150  587   5.235   5.810   3.142
    2CHTO   C80  588   5.373   5.680   3.037
    2CHTO  H152  589   5.367   5.594   2.966
    2CHTO   O55  590   5.425   5.793   2.965
    2CHTO  H134  591   5.380   5.803   2.883
    2CHTO   C84  592   5.467   5.640   3.159
    2CHTO  H156  593   5.479   5.728   3.222
    2CHTO   N15  594   5.604   5.597   3.115
    2CHTO  H143  595   5.664   5.574   3.201
    2CHTO  H144  596   5.598   5.511   3.052
    2CHTO   C87  597   5.394   5.530   3.240
    2CHTO  H159  598   5.378   5.443   3.176
    2CHTO   O53  599   5.263   5.587   3.286
    2CHTO   C82  600   5.173   5.607   3.177
    2CHTO  H154  601   5.157   5.514   3.123
    2CHTO   C89  602   5.038   5.648   3.238
    2CHTO   O59  603   4.935   5.653   3.139
    2CHTO  H137  604   4.854   5.679   3.179
    2CHTO   O45  605   5.476   5.483   3.372
    2CHTO   C67  606   5.404   5.390   3.455
    2CHTO  H124  607   5.310   5.437   3.486
    2CHTO   C65  608   5.371   5.255   3.382
    2CHTO  H122  609   5.432   5.253   3.292
    2CHTO   O44  610   5.232   5.262   3.342
    2CHTO  H102  611   5.211   5.190   3.286
    2CHTO   C63  612   5.415   5.128   3.464
    2CHTO  H120  613   5.524   5.124   3.466
    2CHTO   N11  614   5.380   4.995   3.403
    2CHTO  H108  615   5.469   4.945   3.368
    2CHTO  H109  616   5.311   5.007   3.322
    2CHTO   C61  617   5.368   5.145   3.613
    2CHTO  H118  618   5.410   5.060   3.670
    2CHTO   O40  619   5.419   5.266   3.675
    2CHTO   C68  620   5.484   5.366   3.588
    2CHTO  H125  621   5.586   5.330   3.564
    2CHTO   C72  622   5.500   5.498   3.667
    2CHTO   O48  623   5.587   5.484   3.779
    2CHTO  H105  624   5.546   5.430   3.845
    2CHTO   O38  625   5.225   5.146   3.623
    2CHTO   C55  626   5.166   5.132   3.753
    2CHTO  H112  627   5.240   5.156   3.831
    2CHTO   C56  628   5.107   4.986   3.771
    2CHTO  H113  629   5.050   4.963   3.680
    2CHTO   O42  630   5.215   4.892   3.776
    2CHTO  H100  631   5.261   4.889   3.694
    2CHTO   C57  632   5.012   4.976   3.898
    2CHTO  H114  633   5.073   4.993   3.987
    2CHTO   N10  634   4.946   4.844   3.913
    2CHTO  H106  635   5.009   4.778   3.970
    2CHTO  H107  636   4.851   4.854   3.963
    2CHTO   C58  637   4.909   5.092   3.887
    2CHTO  H115  638   4.854   5.081   3.790
    2CHTO   O37  639   4.980   5.217   3.888
    2CHTO   C59  640   5.054   5.240   3.768
    2CHTO  H116  641   4.986   5.236   3.682
    2CHTO   C70  642   5.112   5.382   3.772
    2CHTO   O46  643   5.203   5.406   3.880
    2CHTO  H103  644   5.156   5.403   3.962
    2CHTO   O39  645   4.801   5.098   4.012
    2CHTO   C60  646   4.663   5.105   3.970
    2CHTO  H117  647   4.653   5.067   3.868
    2CHTO   C62  648   4.574   5.014   0.020
    2CHTO  H119  649   4.614   4.911   0.009
    2CHTO   O43  650   4.588   5.055   0.158
    2CHTO  H101  651   4.540   4.997   0.213
    2CHTO   C66  652   4.422   5.019   4.008
    2CHTO  H123  653   4.421   4.992   3.903
    2CHTO   N12  654   4.335   4.921   0.037
    2CHTO  H110  655   4.373   4.821   0.022
    2CHTO  H111  656   4.234   4.929   4.040
    2CHTO   C69  657   4.369   5.164   4.021
    2CHTO  H126  658   4.368   5.195   0.087
    2CHTO   O41  659   4.461   5.257   3.941
    2CHTO   C64  660   4.610   5.252   3.970
    2CHTO  H121  661   4.632   5.298   0.027
    2CHTO   C71  662   4.679   5.336   3.860
    2CHTO   O47  663   4.632   5.471   3.860
    2CHTO  H104  664   4.675   5.519   3.792
    2CHTO   O34  665   4.222   5.179   3.964
    2CHTO   C49  666   4.134   5.277   3.881
    2CHTO   H91  667   4.035   5.276   3.927
    2CHTO   C47  668   4.125   5.226   3.736
    2CHTO   H89  669   4.048   5.289   3.685
    2CHTO   O33  670   4.077   5.090   3.740
    2CHTO   H70  671   4.063   5.058   3.652
    2CHTO   C45  672   4.267   5.243   3.663
    2CHTO   H87  673   4.343   5.188   3.722
    2CHTO    N8  674   4.267   5.187   3.526
    2CHTO   H75  675   4.200   5.244   3.463
    2CHTO   H76  676   4.367   5.191   3.484
    2CHTO   C43  677   4.313   5.397   3.669
    2CHTO   H85  678   4.414   5.400   3.629
    2CHTO   O29  679   4.307   5.447   3.804
    2CHTO   C50  680   4.189   5.423   3.883
    2CHTO   H92  681   4.215   5.445   3.987
    2CHTO   C54  682   4.077   5.526   3.852
    2CHTO   O36  683   4.120   5.659   3.882
    2CHTO   H72  684   4.051   5.720   3.862
    2CHTO   O27  685   4.233   5.482   3.583
    2CHTO   C37  686   4.262   5.577   3.480
    2CHTO   H79  687   4.354   5.550   3.428
    2CHTO   C38  688   4.149   5.577   3.372
    2CHTO   H80  689   4.052   5.586   3.424
    2CHTO   O31  690   4.154   5.449   3.306
    2CHTO   H68  691   4.083   5.441   3.246
    2CHTO   C39  692   4.165   5.696   3.269
    2CHTO   H81  693   4.257   5.679   3.213
    2CHTO    N7  694   4.053   5.703   3.169
    2CHTO   H73  695   3.959   5.719   3.220
    2CHTO   H74  696   4.072   5.783   3.099
    2CHTO   C40  697   4.182   5.830   3.350
    2CHTO   H82  698   4.091   5.849   3.407
    2CHTO   O26  699   4.297   5.818   3.435
    2CHTO   C41  700   4.280   5.720   3.541
    2CHTO   H83  701   4.192   5.745   3.602
    2CHTO   C52  702   4.405   5.729   3.632
    2CHTO   O35  703   4.417   5.860   3.697
    2CHTO   H71  704   4.494   5.861   3.750
    2CHTO   O28  705   4.208   5.945   3.266
    2CHTO   C42  706   4.191   6.082   3.316
    2CHTO   H84  707   4.213   6.144   3.229
    2CHTO   C44  708   4.291   6.127   3.428
    2CHTO   H86  709   4.276   6.064   3.515
    2CHTO   O32  710   4.424   6.106   3.378
    2CHTO   H69  711   4.442   6.014   3.370
    2CHTO   C48  712   4.268   6.278   3.472
    2CHTO   H90  713   4.296   6.342   3.389
    2CHTO    N9  714   4.357   6.318   3.586
    2CHTO   H77  715   4.461   6.309   3.557
    2CHTO   H78  716   4.337   6.256   3.673
    2CHTO   C51  717   4.115   6.302   3.504
    2CHTO   H93  718   4.090   6.244   3.593
    2CHTO   O30  719   4.037   6.263   3.391
    2CHTO   C46  720   4.046   6.116   3.361
    2CHTO   H88  721   4.022   6.060   3.452
    2CHTO   C53  722   3.942   6.082   3.251
    2CHTO   O72  723   3.809   6.104   3.299
    2CHTO  H199  724   3.748   6.081   3.232
    2CHTO   O22  725   4.085   6.442   3.524
    2CHTO   C31  726   3.968   6.486   3.603
    2CHTO   H59  727   3.963   6.596   3.590
    2CHTO   C29  728   3.832   6.429   3.554
    2CHTO   H57  729   3.838   6.319   3.559
    2CHTO   O21  730   3.815   6.465   3.416
    2CHTO   H37  731   3.881   6.423   3.363
    2CHTO   C27  732   3.712   6.477   3.644
    2CHTO   H55  733   3.701   6.586   3.632
    2CHTO    N5  734   3.583   6.413   3.606
    2CHTO   H43  735   3.590   6.306   3.618
    2CHTO   H44  736   3.558   6.438   3.504
    2CHTO   C25  737   3.745   6.451   3.796
    2CHTO   H53  738   3.752   6.343   3.813
    2CHTO   O17  739   3.873   6.513   3.830
    2CHTO   C32  740   3.985   6.462   3.756
    2CHTO   H60  741   3.995   6.355   3.775
    2CHTO   C36  742   4.114   6.531   3.811
    2CHTO   O25  743   4.109   6.674   3.800
    2CHTO   H40  744   4.112   6.699   3.709
    2CHTO   O15  745   3.636   6.513   3.892
    2CHTO   C19  746   3.557   6.463   4.004
    2CHTO   H47  747   3.507   6.554   0.002
    2CHTO   C20  748   3.447   6.360   3.963
    2CHTO   H48  749   3.490   6.271   3.914
    2CHTO   O19  750   3.360   6.425   3.869
    2CHTO   H35  751   3.405   6.439   3.787
    2CHTO   C21  752   3.362   6.311   0.048
    2CHTO   H49  753   3.302   6.394   0.083
    2CHTO    N4  754   3.267   6.201   0.015
    2CHTO   H41  755   3.196   6.235   3.981
    2CHTO   H42  756   3.321   6.116   4.016
    2CHTO   C22  757   3.457   6.273   0.165
    2CHTO   H50  758   3.508   6.179   0.142
    2CHTO   O14  759   3.553   6.377   0.190
    2CHTO   C23  760   3.641   6.405   0.081
    2CHTO   H51  761   3.692   6.312   0.052
    2CHTO   C34  762   3.747   6.505   0.129
    2CHTO   O23  763   3.824   6.452   0.237
    2CHTO   H38  764   3.887   6.516   0.265
    2CHTO   O16  765   3.382   6.260   0.288
    2CHTO   C24  766   3.466   6.212   0.415
    2CHTO   H52  767   3.573   6.220   0.399
    2CHTO   C26  768   3.427   6.067   0.448
    2CHTO   H54  769   3.316   6.060   0.453
    2CHTO   O20  770   3.473   5.984   0.340
    2CHTO   H36  771   3.442   5.896   0.351
    2CHTO   C30  772   3.486   6.021   0.586
    2CHTO   H58  773   3.595   6.013   0.579
    2CHTO    N6  774   3.436   5.886   0.624
    2CHTO   H45  775   3.465   5.814   0.549
    2CHTO   H46  776   3.478   5.857   0.719
    2CHTO   C33  777   3.455   6.128   0.696
    2CHTO   H61  778   3.347   6.133   0.713
    2CHTO   O18  779   3.500   6.257   0.651
    2CHTO   C28  780   3.432   6.306   0.534
    2CHTO   H56  781   3.324   6.306   0.550
    2CHTO   C35  782   3.478   6.451   0.506
    2CHTO   O24  783   3.442   6.542   0.611
    2CHTO   H39  784   3.349   6.554   0.612
    2CHTO    O9  785   3.514   6.093   0.823
    2CHTO   C13  786   3.457   6.179   0.946
    2CHTO   H26  787   3.352   6.207   0.923
    2CHTO   C11  788   3.548   6.307   0.968
    2CHTO   H24  789   3.537   6.372   0.880
    2CHTO    O8  790   3.687   6.269   0.977
    2CHTO    H3  791   3.716   6.233   0.896
    2CHTO    C9  792   3.494   6.381   1.093
    2CHTO   H22  793   3.387   6.398   1.074
    2CHTO    N2  794   3.552   6.517   1.110
    2CHTO   H10  795   3.593   6.530   1.209
    2CHTO   H11  796   3.476   6.593   1.092
    2CHTO    C7  797   3.508   6.288   1.219
    2CHTO   H20  798   3.453   6.343   1.298
    2CHTO    O4  799   3.443   6.161   1.201
    2CHTO   C14  800   3.448   6.089   1.076
    2CHTO   H27  801   3.353   6.034   1.071
    2CHTO   C18  802   3.560   5.982   1.083
    2CHTO   O13  803   3.531   5.881   1.180
    2CHTO    H7  804   3.600   5.818   1.182
    2CHTO    O2  805   3.665   6.264   1.265
    2CHTO    C1  806   3.679   6.246   1.407
    2CHTO   H14  807   3.591   6.190   1.444
    2CHTO    C2  808   3.693   6.380   1.490
    2CHTO   H15  809   3.780   6.434   1.448
    2CHTO    O6  810   3.575   6.460   1.473
    2CHTO    H1  811   3.587   6.544   1.513
    2CHTO    C3  812   3.718   6.348   1.645
    2CHTO   H16  813   3.625   6.305   1.686
    2CHTO    N1  814   3.749   6.472   1.726
    2CHTO    H8  815   3.749   6.560   1.664
    2CHTO    H9  816   3.676   6.483   1.805
    2CHTO    C4  817   3.829   6.238   1.664
    2CHTO   H17  818   3.927   6.282   1.646
    2CHTO    O1  819   3.808   6.125   1.576
    2CHTO    C5  820   3.803   6.156   1.436
    2CHTO   H18  821   3.893   6.212   1.407
    2CHTO   C16  822   3.800   6.023   1.358
    2CHTO   O11  823   3.920   5.947   1.378
    2CHTO    H5  824   3.914   5.866   1.330
    2CHTO    O3  825   3.821   6.180   1.796
    2CHTO    C6  826   3.948   6.136   1.853
    2CHTO   H19  827   4.031   6.138   1.781
    2CHTO    C8  828   3.986   6.228   1.973
    2CHTO   H21  829   3.899   6.234   2.040
    2CHTO    O7  830   4.014   6.359   1.920
    2CHTO    H2  831   4.089   6.357   1.864
    2CHTO   C12  832   4.109   6.171   2.054
    2CHTO   H25  833   4.197   6.183   1.989
    2CHTO    N3  834   4.136   6.252   2.178
    2CHTO   H12  835   4.157   6.354   2.151
    2CHTO   H13  836   4.219   6.210   2.232
    2CHTO   C15  837   4.089   6.018   2.083
    2CHTO   H28  838   4.012   6.000   2.158
    2CHTO   O10  839   4.220   5.950   2.128
    2CHTO    H4  840   4.202   5.863   2.158
    2CHTO    O5  841   4.057   5.945   1.963
    2CHTO   C10  842   3.935   5.988   1.901
    2CHTO   H23  843   3.854   5.980   1.973
    2CHTO   C17  844   3.903   5.893   1.784
    2CHTO   O12  845   3.879   5.760   1.830
    2CHTO    H6  846   3.858   5.705   1.757
    3CHTO  H203  847   6.421   1.562   2.198
    3CHTO   O82  848   6.415   1.490   2.139
    3CHTO  C123  849   6.506   1.508   2.029
    3CHTO  H227  850   6.501   1.419   1.964
    3CHTO   O77  851   6.451   1.624   1.958
    3CHTO  C118  852   6.517   1.654   1.834
    3CHTO  H222  853   6.514   1.567   1.767
    3CHTO  C125  854   6.438   1.773   1.766
    3CHTO   O84  855   6.298   1.742   1.754
    3CHTO  H205  856   6.254   1.814   1.713
    3CHTO  C114  857   6.663   1.694   1.862
    3CHTO  H218  858   6.664   1.781   1.926
    3CHTO  C116  859   6.737   1.581   1.943
    3CHTO  H220  860   6.751   1.492   1.879
    3CHTO   O79  861   6.869   1.628   1.978
    3CHTO  H201  862   6.863   1.703   2.034
    3CHTO  C120  863   6.654   1.540   2.072
    3CHTO  H224  864   6.655   1.628   2.141
    3CHTO   N21  865   6.717   1.427   2.145
    3CHTO  H211  866   6.643   1.368   2.197
    3CHTO  H212  867   6.791   1.464   2.214
    3CHTO   O75  868   6.716   1.732   1.733
    3CHTO  C112  869   6.846   1.657   1.670
    3CHTO  H216  870   6.841   1.550   1.694
    3CHTO   O73  871   6.964   1.719   1.726
    3CHTO  C113  872   7.086   1.648   1.695
    3CHTO  H217  873   7.096   1.568   1.771
    3CHTO  C124  874   7.202   1.745   1.721
    3CHTO   O83  875   7.330   1.681   1.713
    3CHTO  H204  876   7.398   1.744   1.730
    3CHTO  C109  877   7.087   1.585   1.551
    3CHTO  H213  878   7.192   1.587   1.515
    3CHTO  C110  879   6.993   1.667   1.456
    3CHTO  H214  880   6.994   1.621   1.357
    3CHTO   O78  881   7.046   1.799   1.438
    3CHTO  H200  882   6.997   1.846   1.373
    3CHTO  C111  883   6.848   1.679   1.513
    3CHTO  H215  884   6.811   1.781   1.495
    3CHTO   N19  885   6.750   1.587   1.449
    3CHTO  H207  886   6.782   1.485   1.461
    3CHTO  H208  887   6.741   1.611   1.344
    3CHTO   O74  888   7.040   1.447   1.552
    3CHTO  C115  889   7.144   1.337   1.601
    3CHTO  H219  890   7.247   1.364   1.574
    3CHTO   O76  891   7.145   1.323   1.758
    3CHTO  C122  892   7.013   1.301   1.811
    3CHTO  H226  893   6.961   1.397   1.812
    3CHTO  C126  894   7.025   1.257   1.961
    3CHTO   O85  895   7.079   1.360   2.044
    3CHTO  H206  896   7.169   1.375   2.022
    3CHTO  C121  897   6.929   1.195   1.727
    3CHTO  H225  898   6.876   1.128   1.796
    3CHTO   O81  899   6.827   1.263   1.652
    3CHTO  H202  900   6.865   1.321   1.589
    3CHTO  C119  901   7.021   1.110   1.634
    3CHTO  H223  902   7.092   1.061   1.701
    3CHTO  C117  903   7.103   1.200   1.532
    3CHTO  H221  904   7.046   1.231   1.445
    3CHTO   N20  905   7.221   1.125   1.477
    3CHTO  H209  906   7.313   1.180   1.493
    3CHTO  H210  907   7.207   1.105   1.372
    3CHTO   O80  908   6.950   0.985   1.569
    3CHTO  C103  909   6.944   0.845   1.648
    3CHTO  H190  910   7.044   0.810   1.671
    3CHTO  C101  911   6.856   0.842   1.780
    3CHTO  H188  912   6.764   0.898   1.762
    3CHTO   O68  913   6.934   0.912   1.894
    3CHTO  H168  914   6.879   0.920   1.970
    3CHTO   C99  915   6.816   0.692   1.821
    3CHTO  H186  916   6.908   0.633   1.841
    3CHTO   N17  917   6.730   0.682   1.944
    3CHTO  H174  918   6.638   0.630   1.923
    3CHTO  H175  919   6.711   0.779   1.985
    3CHTO   C97  920   6.750   0.625   1.696
    3CHTO  H184  921   6.664   0.688   1.668
    3CHTO   O64  922   6.849   0.619   1.592
    3CHTO  C104  923   6.884   0.747   1.539
    3CHTO  H191  924   6.798   0.794   1.492
    3CHTO  C108  925   6.987   0.726   1.426
    3CHTO   O71  926   6.930   0.652   1.318
    3CHTO  H171  927   6.994   0.640   1.251
    3CHTO   O62  928   6.710   0.488   1.714
    3CHTO   C91  929   6.595   0.448   1.636
    3CHTO  H178  930   6.574   0.524   1.560
    3CHTO   C92  931   6.469   0.440   1.727
    3CHTO  H179  932   6.491   0.374   1.812
    3CHTO   O66  933   6.446   0.570   1.784
    3CHTO  H166  934   6.428   0.633   1.717
    3CHTO   C93  935   6.340   0.390   1.649
    3CHTO  H180  936   6.309   0.472   1.582
    3CHTO   N16  937   6.223   0.367   1.738
    3CHTO  H172  938   6.247   0.389   1.841
    3CHTO  H173  939   6.186   0.266   1.729
    3CHTO   C94  940   6.373   0.264   1.562
    3CHTO  H181  941   6.392   0.175   1.623
    3CHTO   O61  942   6.491   0.284   1.482
    3CHTO   C95  943   6.609   0.311   1.560
    3CHTO  H182  944   6.624   0.230   1.632
    3CHTO  C106  945   6.735   0.308   1.465
    3CHTO   O69  946   6.727   0.407   1.362
    3CHTO  H169  947   6.803   0.402   1.308
    3CHTO   O63  948   6.254   0.236   1.456
    3CHTO   C96  949   6.188   0.096   1.477
    3CHTO  H183  950   6.191   0.073   1.583
    3CHTO   C98  951   6.256   9.979   1.400
    3CHTO  H185  952   6.259   0.003   1.293
    3CHTO   O67  953   6.393   9.972   1.442
    3CHTO  H167  954   6.439   9.908   1.392
    3CHTO  C102  955   6.183   9.838   1.426
    3CHTO  H189  956   6.217   9.806   1.526
    3CHTO   N18  957   6.225   9.731   1.333
    3CHTO  H176  958   6.199   9.757   1.232
    3CHTO  H177  959   6.177   9.637   1.360
    3CHTO  C105  960   6.028   9.852   1.434
    3CHTO  H192  961   5.984   9.833   1.336
    3CHTO   O65  962   5.976   9.977   1.483
    3CHTO  C100  963   6.037   0.097   1.434
    3CHTO  H187  964   6.029   0.099   1.324
    3CHTO  C107  965   5.955   0.214   1.491
    3CHTO   O70  966   5.988   0.338   1.428
    3CHTO  H170  967   5.936   0.407   1.465
    3CHTO   O57  968   5.985   9.736   1.540
    3CHTO   C85  969   5.859   9.668   1.537
    3CHTO  H157  970   5.866   9.596   1.452
    3CHTO   C83  971   5.739   9.762   1.502
    3CHTO  H155  972   5.757   9.806   1.404
    3CHTO   O56  973   5.735   9.873   1.595
    3CHTO  H135  974   5.716   9.843   1.682
    3CHTO   C81  975   5.609   9.678   1.496
    3CHTO  H153  976   5.624   9.597   1.425
    3CHTO   N14  977   5.492   9.753   1.442
    3CHTO  H141  978   5.466   9.833   1.509
    3CHTO  H142  979   5.408   9.688   1.431
    3CHTO   C79  980   5.582   9.614   1.637
    3CHTO  H151  981   5.493   9.550   1.628
    3CHTO   O52  982   5.694   9.528   1.675
    3CHTO   C86  983   5.824   9.595   1.673
    3CHTO  H158  984   5.819   9.668   1.756
    3CHTO   C90  985   5.936   9.495   1.712
    3CHTO   O60  986   5.923   9.451   1.847
    3CHTO  H138  987   5.941   9.522   1.906
    3CHTO   O50  988   5.558   9.711   1.741
    3CHTO   C73  989   5.466   9.733   1.849
    3CHTO  H145  990   5.430   9.637   1.889
    3CHTO   C74  991   5.343   9.816   1.799
    3CHTO  H146  992   5.298   9.760   1.715
    3CHTO   O54  993   5.245   9.817   1.904
    3CHTO  H133  994   5.209   9.731   1.917
    3CHTO   C75  995   5.390   9.960   1.755
    3CHTO  H147  996   5.461   9.950   1.672
    3CHTO   N13  997   5.280   0.047   1.705
    3CHTO  H139  998   5.205   0.059   1.781
    3CHTO  H140  999   5.235   0.002   1.618
    3CHTO   C76 1000   5.469   0.027   1.877
    3CHTO  H148 1001   5.399   0.038   1.960
    3CHTO   O49 1002   5.581   9.942   1.918
    3CHTO   C77 1003   5.539   9.812   1.962
    3CHTO  H149 1004   5.471   9.823   2.046
    3CHTO   C88 1005   5.660   9.734   2.016
    3CHTO   O58 1006   5.720   9.803   2.134
    3CHTO  H136 1007   5.756   9.885   2.108
    3CHTO   O51 1008   5.537   0.166   1.837
    3CHTO   C78 1009   5.553   0.258   1.967
    3CHTO  H150 1010   5.536   0.198   2.059
    3CHTO   C80 1011   5.450   0.373   1.964
    3CHTO  H152 1012   5.464   0.430   1.869
    3CHTO   O55 1013   5.319   0.313   1.962
    3CHTO  H134 1014   5.254   0.379   1.952
    3CHTO   C84 1015   5.468   0.470   2.087
    3CHTO  H156 1016   5.440   0.414   2.177
    3CHTO   N15 1017   5.376   0.589   2.080
    3CHTO  H143 1018   5.431   0.681   2.075
    3CHTO  H144 1019   5.311   0.591   2.165
    3CHTO   C87 1020   5.616   0.512   2.104
    3CHTO  H159 1021   5.644   0.583   2.026
    3CHTO   O53 1022   5.710   0.388   2.098
    3CHTO   C82 1023   5.696   0.314   1.975
    3CHTO  H154 1024   5.715   0.380   1.890
    3CHTO   C89 1025   5.803   0.202   1.970
    3CHTO   O59 1026   5.792   0.111   2.079
    3CHTO  H137 1027   5.857   0.044   2.071
    3CHTO   O45 1028   5.636   0.582   2.251
    3CHTO   C67 1029   5.762   0.647   2.273
    3CHTO  H124 1030   5.842   0.576   2.251
    3CHTO   C65 1031   5.780   0.773   2.181
    3CHTO  H122 1032   5.682   0.794   2.139
    3CHTO   O44 1033   5.869   0.735   2.075
    3CHTO  H102 1034   5.872   0.802   2.009
    3CHTO   C63 1035   5.818   0.904   2.262
    3CHTO  H120 1036   5.732   0.932   2.323
    3CHTO   N11 1037   5.837   1.027   2.179
    3CHTO  H108 1038   5.929   1.076   2.205
    3CHTO  H109 1039   5.755   1.095   2.191
    3CHTO   C61 1040   5.933   0.871   2.364
    3CHTO  H118 1041   5.941   0.959   2.430
    3CHTO   O40 1042   5.904   0.757   2.449
    3CHTO   C68 1043   5.780   0.684   2.426
    3CHTO  H125 1044   5.695   0.749   2.457
    3CHTO   C72 1045   5.776   0.558   2.517
    3CHTO   O48 1046   5.886   0.468   2.496
    3CHTO  H105 1047   5.879   0.429   2.411
    3CHTO   O38 1048   6.059   0.845   2.298
    3CHTO   C55 1049   6.177   0.886   2.369
    3CHTO  H112 1050   6.155   0.899   2.477
    3CHTO   C56 1051   6.234   1.019   2.304
    3CHTO  H113 1052   6.241   1.002   2.196
    3CHTO   O42 1053   6.139   1.126   2.322
    3CHTO  H100 1054   6.060   1.108   2.274
    3CHTO   C57 1055   6.375   1.059   2.363
    3CHTO  H114 1056   6.360   1.094   2.465
    3CHTO   N10 1057   6.442   1.169   2.289
    3CHTO  H106 1058   6.413   1.264   2.331
    3CHTO  H107 1059   6.415   1.166   2.185
    3CHTO   C58 1060   6.468   0.934   2.368
    3CHTO  H115 1061   6.495   0.904   2.264
    3CHTO   O37 1062   6.402   0.824   2.433
    3CHTO   C59 1063   6.287   0.776   2.363
    3CHTO  H116 1064   6.313   0.753   2.260
    3CHTO   C70 1065   6.242   0.646   2.432
    3CHTO   O46 1066   6.143   0.574   2.358
    3CHTO  H103 1067   6.181   0.540   2.280
    3CHTO   O39 1068   6.605   0.962   2.460
    3CHTO   C60 1069   6.727   0.974   2.384
    3CHTO  H117 1070   6.704   0.992   2.279
    3CHTO   C62 1071   6.811   1.093   2.437
    3CHTO  H119 1072   6.747   1.183   2.428
    3CHTO   O43 1073   6.842   1.074   2.576
    3CHTO  H101 1074   6.896   0.998   2.588
    3CHTO   C66 1075   6.942   1.113   2.344
    3CHTO  H123 1076   6.909   1.127   2.241
    3CHTO   N12 1077   7.020   1.234   2.380
    3CHTO  H110 1078   6.959   1.322   2.366
    3CHTO  H111 1079   7.055   1.226   2.482
    3CHTO   C69 1080   7.028   0.983   2.347
    3CHTO  H126 1081   7.069   0.966   2.449
    3CHTO   O41 1082   6.938   0.860   2.305
    3CHTO   C64 1083   6.812   0.843   2.390
    3CHTO  H121 1084   6.839   0.823   2.496
    3CHTO   C71 1085   6.733   0.721   2.337
    3CHTO   O47 1086   6.811   0.601   2.347
    3CHTO  H104 1087   6.761   0.529   2.316
    3CHTO   O34 1088   7.148   0.993   2.247
    3CHTO   C49 1089   7.270   0.902   2.224
    3CHTO   H91 1090   7.327   0.902   2.317
    3CHTO   C47 1091   7.355   0.961   2.110
    3CHTO   H89 1092   7.448   0.901   2.104
    3CHTO   O33 1093   7.391   1.097   2.145
    3CHTO   H70 1094   7.450   1.097   2.218
    3CHTO   C45 1095   7.273   0.951   1.972
    3CHTO   H87 1096   7.179   1.005   1.985
    3CHTO    N8 1097   7.346   1.013   1.857
    3CHTO   H75 1098   7.294   1.102   1.824
    3CHTO   H76 1099   7.447   1.038   1.884
    3CHTO   C43 1100   7.228   0.798   1.943
    3CHTO   H85 1101   7.159   0.804   1.859
    3CHTO   O29 1102   7.166   0.741   2.060
    3CHTO   C50 1103   7.230   0.756   2.188
    3CHTO   H92 1104   7.158   0.722   2.264
    3CHTO   C54 1105   7.347   0.655   2.204
    3CHTO   O36 1106   7.406   0.657   2.335
    3CHTO   H72 1107   7.345   0.624   2.398
    3CHTO   O27 1108   7.335   0.713   1.896
    3CHTO   C37 1109   7.338   0.596   1.811
    3CHTO   H79 1110   7.430   0.539   1.830
    3CHTO   C38 1111   7.218   0.499   1.839
    3CHTO   H80 1112   7.125   0.557   1.833
    3CHTO   O31 1113   7.233   0.450   1.974
    3CHTO   H68 1114   7.158   0.400   1.999
    3CHTO   C39 1115   7.213   0.379   1.737
    3CHTO   H81 1116   7.299   0.316   1.759
    3CHTO    N7 1117   7.090   0.294   1.753
    3CHTO   H73 1118   7.117   0.192   1.772
    3CHTO   H74 1119   7.026   0.301   1.666
    3CHTO   C40 1120   7.231   0.428   1.588
    3CHTO   H82 1121   7.138   0.471   1.550
    3CHTO   O26 1122   7.341   0.520   1.576
    3CHTO   C41 1123   7.334   0.637   1.662
    3CHTO   H83 1124   7.241   0.692   1.641
    3CHTO   C52 1125   7.453   0.730   1.625
    3CHTO   O35 1126   7.439   0.787   1.488
    3CHTO   H71 1127   7.367   0.846   1.486
    3CHTO   O28 1128   7.273   0.319   1.503
    3CHTO   C42 1129   7.228   0.303   1.365
    3CHTO   H84 1130   7.301   0.234   1.323
    3CHTO   C44 1131   7.231   0.430   1.274
    3CHTO   H86 1132   7.169   0.507   1.321
    3CHTO   O32 1133   7.367   0.477   1.273
    3CHTO   H69 1134   7.423   0.416   1.230
    3CHTO   C48 1135   7.175   0.403   1.129
    3CHTO   H90 1136   7.242   0.333   1.080
    3CHTO    N9 1137   7.174   0.528   1.045
    3CHTO   H77 1138   7.234   0.513   0.956
    3CHTO   H78 1139   7.073   0.557   1.018
    3CHTO   C51 1140   7.033   0.336   1.140
    3CHTO   H93 1141   6.965   0.405   1.191
    3CHTO   O30 1142   7.047   0.212   1.211
    3CHTO   C46 1143   7.089   0.231   1.356
    3CHTO   H88 1144   7.015   0.294   1.406
    3CHTO   C53 1145   7.092   0.091   1.423
    3CHTO   O72 1146   7.183   0.001   1.357
    3CHTO  H199 1147   7.271   0.030   1.371
    3CHTO   O22 1148   6.980   0.299   1.011
    3CHTO   C31 1149   6.835   0.284   0.984
    3CHTO   H59 1150   6.828   0.245   0.880
    3CHTO   C29 1151   6.763   0.181   1.074
    3CHTO   H57 1152   6.780   0.212   1.179
    3CHTO   O21 1153   6.830   0.054   1.059
    3CHTO   H37 1154   6.815   0.019   0.973
    3CHTO   C27 1155   6.608   0.171   1.047
    3CHTO   H55 1156   6.592   0.125   0.949
    3CHTO    N5 1157   6.538   0.088   1.149
    3CHTO   H43 1158   6.457   0.142   1.196
    3CHTO   H44 1159   6.501   9.997   1.104
    3CHTO   C25 1160   6.545   0.315   1.037
    3CHTO   H53 1161   6.545   0.362   1.137
    3CHTO   O17 1162   6.621   0.398   0.946
    3CHTO   C32 1163   6.758   0.419   0.984
    3CHTO   H60 1164   6.763   0.463   1.084
    3CHTO   C36 1165   6.820   0.519   0.883
    3CHTO   O25 1166   6.757   0.648   0.891
    3CHTO   H40 1167   6.779   0.689   0.972
    3CHTO   O15 1168   6.393   0.307   0.982
    3CHTO   C19 1169   6.292   0.411   0.983
    3CHTO   H47 1170   6.208   0.365   0.928
    3CHTO   C20 1171   6.242   0.449   1.126
    3CHTO   H48 1172   6.326   0.474   1.193
    3CHTO   O19 1173   6.178   0.332   1.180
    3CHTO   H35 1174   6.241   0.265   1.197
    3CHTO   C21 1175   6.143   0.573   1.125
    3CHTO   H49 1176   6.052   0.545   1.073
    3CHTO    N4 1177   6.104   0.618   1.261
    3CHTO   H41 1178   6.036   0.702   1.254
    3CHTO   H42 1179   6.055   0.537   1.313
    3CHTO   C22 1180   6.210   0.686   1.042
    3CHTO   H50 1181   6.305   0.711   1.091
    3CHTO   O14 1182   6.234   0.639   0.909
    3CHTO   C23 1183   6.334   0.537   0.901
    3CHTO   H51 1184   6.429   0.580   0.937
    3CHTO   C34 1185   6.351   0.503   0.752
    3CHTO   O23 1186   6.409   0.611   0.678
    3CHTO   H38 1187   6.499   0.622   0.704
    3CHTO   O16 1188   6.129   0.804   1.024
    3CHTO   C24 1189   6.218   0.940   1.027
    3CHTO   H52 1190   6.324   0.919   1.040
    3CHTO   C26 1191   6.169   1.027   1.144
    3CHTO   H54 1192   6.059   1.043   1.133
    3CHTO   O20 1193   6.190   0.954   1.266
    3CHTO   H36 1194   6.133   0.880   1.271
    3CHTO   C30 1195   6.240   1.165   1.146
    3CHTO   H58 1196   6.345   1.151   1.178
    3CHTO    N6 1197   6.178   1.255   1.248
    3CHTO   H45 1198   6.137   1.344   1.202
    3CHTO   H46 1199   6.252   1.285   1.321
    3CHTO   C33 1200   6.247   1.231   1.005
    3CHTO   H61 1201   6.149   1.274   0.979
    3CHTO   O18 1202   6.283   1.137   0.903
    3CHTO   C28 1203   6.203   1.018   0.894
    3CHTO   H56 1204   6.098   1.043   0.879
    3CHTO   C35 1205   6.251   0.934   0.773
    3CHTO   O24 1206   6.388   0.893   0.783
    3CHTO   H39 1207   6.412   0.843   0.707
    3CHTO    O9 1208   6.339   1.343   1.008
    3CHTO   C13 1209   6.300   1.468   0.916
    3CHTO   H26 1210   6.199   1.503   0.947
    3CHTO   C11 1211   6.304   1.430   0.763
    3CHTO   H24 1212   6.225   1.355   0.745
    3CHTO    O8 1213   6.430   1.368   0.728
    3CHTO    H3 1214   6.440   1.287   0.775
    3CHTO    C9 1215   6.271   1.557   0.682
    3CHTO   H22 1216   6.174   1.592   0.720
    3CHTO    N2 1217   6.248   1.532   0.538
    3CHTO   H10 1218   6.339   1.499   0.490
    3CHTO   H11 1219   6.210   1.621   0.490
    3CHTO    C7 1220   6.379   1.668   0.709
    3CHTO   H20 1221   6.337   1.759   0.662
    3CHTO    O4 1222   6.395   1.696   0.850
    3CHTO   C14 1223   6.398   1.590   0.948
    3CHTO   H27 1224   6.362   1.636   1.042
    3CHTO   C18 1225   6.544   1.545   0.972
    3CHTO   O13 1226   6.621   1.651   1.030
    3CHTO    H7 1227   6.709   1.621   1.044
    3CHTO    O2 1228   6.526   1.632   0.644
    3CHTO    C1 1229   6.590   1.744   0.581
    3CHTO   H14 1230   6.570   1.835   0.641
    3CHTO    C2 1231   6.542   1.771   0.431
    3CHTO   H15 1232   6.551   1.675   0.379
    3CHTO    O6 1233   6.405   1.814   0.432
    3CHTO    H1 1234   6.349   1.744   0.460
    3CHTO    C3 1235   6.633   1.883   0.359
    3CHTO   H16 1236   6.609   1.980   0.403
    3CHTO    N1 1237   6.605   1.894   0.212
    3CHTO    H8 1238   6.501   1.919   0.196
    3CHTO    H9 1239   6.667   1.970   0.168
    3CHTO    C4 1240   6.786   1.859   0.388
    3CHTO   H17 1241   6.820   1.773   0.330
    3CHTO    O1 1242   6.810   1.838   0.528
    3CHTO    C5 1243   6.744   1.723   0.583
    3CHTO   H18 1244   6.766   1.634   0.523
    3CHTO   C16 1245   6.798   1.701   0.727
    3CHTO   O11 1246   6.937   1.666   0.726
    3CHTO    H5 1247   6.948   1.580   0.690
    3CHTO    O3 1248   6.863   1.976   0.353
    3CHTO    C6 1249   7.007   1.955   0.344
    3CHTO   H19 1250   7.040   1.865   0.397
    3CHTO    C8 1251   7.053   1.943   0.195
    3CHTO   H21 1252   7.021   2.034   0.142
    3CHTO    O7 1253   6.987   1.829   0.137
    3CHTO    H2 1254   7.015   1.750   0.179
    3CHTO   C12 1255   7.211   1.932   0.188
    3CHTO   H25 1256   7.237   1.836   0.236
    3CHTO    N3 1257   7.260   1.925   0.046
    3CHTO   H12 1258   7.231   2.013   4.033
    3CHTO   H13 1259   7.222   1.836   4.039
    3CHTO   C15 1260   7.276   2.049   0.271
    3CHTO   H28 1261   7.264   2.146   0.221
    3CHTO   O10 1262   7.426   2.024   0.299
    3CHTO    H4 1263   7.474   2.021   0.218
    3CHTO    O5 1264   7.223   2.055   0.404
    3CHTO   C10 1265   7.081   2.075   0.410
    3CHTO   H23 1266   7.056   2.167   0.356
    3CHTO   C17 1267   7.039   2.095   0.556
    3CHTO   O12 1268   7.097   2.214   0.611
    3CHTO    H6 1269   7.071   2.223   0.701
    4CHTO  H203 1270   6.216   6.584   2.424
    4CHTO   O82 1271   6.309   6.582   2.412
    4CHTO  C123 1272   6.367   6.705   2.459
    4CHTO  H227 1273   6.343   6.717   2.566
    4CHTO   O77 1274   6.510   6.682   2.442
    4CHTO  C118 1275   6.593   6.789   2.489
    4CHTO  H222 1276   6.570   6.811   2.594
    4CHTO  C125 1277   6.744   6.744   2.478
    4CHTO   O84 1278   6.772   6.633   2.564
    4CHTO  H205 1279   6.767   6.661   2.654
    4CHTO  C114 1280   6.566   6.915   2.404
    4CHTO  H218 1281   6.590   6.892   2.300
    4CHTO  C116 1282   6.415   6.954   2.408
    4CHTO  H220 1283   6.391   6.992   2.510
    4CHTO   O79 1284   6.393   7.063   2.317
    4CHTO  H201 1285   6.435   7.141   2.349
    4CHTO  C120 1286   6.322   6.830   2.374
    4CHTO  H224 1287   6.336   6.809   2.266
    4CHTO   N21 1288   6.178   6.861   2.393
    4CHTO  H211 1289   6.147   6.841   2.494
    4CHTO  H212 1290   6.157   6.964   2.366
    4CHTO   O75 1291   6.654   7.016   2.457
    4CHTO  C112 1292   6.733   7.106   2.342
    4CHTO  H216 1293   6.659   7.162   2.283
    4CHTO   O73 1294   6.807   7.014   2.259
    4CHTO  C113 1295   6.880   7.077   2.153
    4CHTO  H217 1296   6.809   7.140   2.093
    4CHTO  C124 1297   6.933   6.969   2.059
    4CHTO   O83 1298   7.018   6.873   2.123
    4CHTO  H204 1299   7.099   6.914   2.147
    4CHTO  C109 1300   6.992   7.168   2.211
    4CHTO  H213 1301   7.060   7.103   2.268
    4CHTO  C110 1302   6.926   7.274   2.306
    4CHTO  H214 1303   6.868   7.344   2.245
    4CHTO   O78 1304   7.030   7.350   2.371
    4CHTO  H200 1305   6.993   7.420   2.421
    4CHTO  C111 1306   6.833   7.206   2.412
    4CHTO  H215 1307   6.896   7.146   2.480
    4CHTO   N19 1308   6.758   7.302   2.496
    4CHTO  H207 1309   6.828   7.364   2.552
    4CHTO  H208 1310   6.697   7.366   2.434
    4CHTO   O74 1311   7.066   7.230   2.101
    4CHTO  C115 1312   7.216   7.281   2.135
    4CHTO  H219 1313   7.217   7.350   2.219
    4CHTO   O76 1314   7.310   7.163   2.179
    4CHTO  C122 1315   7.326   7.062   2.079
    4CHTO  H226 1316   7.235   7.002   2.078
    4CHTO  C126 1317   7.440   6.964   2.124
    4CHTO   O85 1318   7.566   7.029   2.141
    4CHTO  H206 1319   7.630   6.967   2.168
    4CHTO  C121 1320   7.353   7.119   1.933
    4CHTO  H225 1321   7.440   7.066   1.888
    4CHTO   O81 1322   7.240   7.092   1.849
    4CHTO  H202 1323   7.229   6.999   1.838
    4CHTO  C119 1324   7.384   7.272   1.935
    4CHTO  H223 1325   7.475   7.282   1.994
    4CHTO  C117 1326   7.269   7.354   2.005
    4CHTO  H221 1327   7.180   7.367   1.943
    4CHTO   N20 1328   7.315   7.494   2.035
    4CHTO  H209 1329   7.347   7.542   1.944
    4CHTO  H210 1330   7.396   7.491   2.106
    4CHTO   O80 1331   7.429   7.329   1.794
    4CHTO  C103 1332   7.581   7.339   1.758
    4CHTO  H190 1333   7.634   7.397   1.834
    4CHTO  C101 1334   7.656   7.203   1.736
    4CHTO  H188 1335   7.591   7.137   1.678
    4CHTO   O68 1336   7.681   7.137   1.874
    4CHTO  H168 1337   7.716   7.051   1.863
    4CHTO   C99 1338   7.794   7.222   1.656
    4CHTO  H186 1339   7.865   7.278   1.720
    4CHTO   N17 1340   7.860   7.092   1.621
    4CHTO  H174 1341   7.799   7.037   1.551
    4CHTO  H175 1342   7.959   7.111   1.580
    4CHTO   C97 1343   7.771   7.311   1.530
    4CHTO  H184 1344   7.706   7.256   1.460
    4CHTO   O64 1345   7.714   7.437   1.571
    4CHTO  C104 1346   7.581   7.425   1.625
    4CHTO  H191 1347   7.515   7.378   1.552
    4CHTO  C108 1348   7.524   7.566   1.648
    4CHTO   O71 1349   7.604   7.644   1.739
    4CHTO  H171 1350   7.598   7.608   1.825
    4CHTO   O62 1351   7.895   7.350   1.466
    4CHTO   C91 1352   7.892   7.369   1.324
    4CHTO  H178 1353   7.790   7.359   1.287
    4CHTO   C92 1354   7.975   7.255   1.257
    4CHTO  H179 1355   8.072   7.248   1.308
    4CHTO   O66 1356   7.908   7.130   1.282
    4CHTO  H166 1357   7.911   7.109   1.373
    4CHTO   C93 1358   7.996   7.275   1.101
    4CHTO  H180 1359   7.899   7.257   1.052
    4CHTO   N16 1360   8.091   7.177   1.042
    4CHTO  H172 1361   8.188   7.187   1.087
    4CHTO  H173 1362   8.097   7.191   0.935
    4CHTO   C94 1363   8.042   7.423   1.071
    4CHTO  H181 1364   8.140   7.444   1.113
    4CHTO   O61 1365   7.951   7.516   1.132
    4CHTO   C95 1366   7.947   7.509   1.275
    4CHTO  H182 1367   8.048   7.524   1.314
    4CHTO  C106 1368   7.859   7.627   1.329
    4CHTO   O69 1369   7.916   7.754   1.295
    4CHTO  H169 1370   7.996   7.767   1.342
    4CHTO   O63 1371   8.045   7.453   0.909
    4CHTO   C96 1372   7.905   7.478   0.840
    4CHTO  H183 1373   7.827   7.475   0.916
    4CHTO   C98 1374   7.870   7.374   0.731
    4CHTO  H185 1375   7.950   7.369   0.656
    4CHTO   O67 1376   7.866   7.244   0.793
    4CHTO  H167 1377   7.854   7.178   0.729
    4CHTO  C102 1378   7.730   7.407   0.662
    4CHTO  H189 1379   7.653   7.383   0.737
    4CHTO   N18 1380   7.697   7.322   0.545
    4CHTO  H176 1381   7.692   7.218   0.575
    4CHTO  H177 1382   7.772   7.334   0.468
    4CHTO  C105 1383   7.719   7.559   0.629
    4CHTO  H192 1384   7.694   7.573   0.524
    4CHTO   O65 1385   7.839   7.636   0.651
    4CHTO  C100 1386   7.909   7.623   0.777
    4CHTO  H187 1387   8.014   7.647   0.756
    4CHTO  C107 1388   7.859   7.730   0.878
    4CHTO   O70 1389   7.888   7.863   0.833
    4CHTO  H170 1390   7.981   7.878   0.836
    4CHTO   O57 1391   7.598   7.610   0.718
    4CHTO   C85 1392   7.492   7.689   0.662
    4CHTO  H157 1393   7.499   7.679   0.552
    4CHTO   C83 1394   7.518   7.840   0.691
    4CHTO  H155 1395   7.610   7.870   0.640
    4CHTO   O56 1396   7.542   7.858   0.832
    4CHTO  H135 1397   7.568   7.947   0.850
    4CHTO   C81 1398   7.400   7.925   0.636
    4CHTO  H153 1399   7.392   7.906   0.529
    4CHTO   N14 1400   7.422   8.072   0.644
    4CHTO  H141 1401   7.511   8.095   0.699
    4CHTO  H142 1402   7.339   8.121   0.690
    4CHTO   C79 1403   7.265   7.879   0.703
    4CHTO  H151 1404   7.185   7.936   0.657
    4CHTO   O52 1405   7.241   7.738   0.673
    4CHTO   C86 1406   7.348   7.648   0.715
    4CHTO  H158 1407   7.344   7.650   0.826
    4CHTO   C90 1408   7.307   7.506   0.672
    4CHTO   O60 1409   7.392   7.405   0.729
    4CHTO  H138 1410   7.478   7.411   0.691
    4CHTO   O50 1411   7.260   7.900   0.845
    4CHTO   C73 1412   7.183   7.938   0.960
    4CHTO  H145 1413   7.131   8.033   0.940
    4CHTO   C74 1414   7.279   7.959   1.082
    4CHTO  H146 1415   7.356   8.031   1.050
    4CHTO   O54 1416   7.205   8.023   1.187
    4CHTO  H133 1417   7.182   8.110   1.163
    4CHTO   C75 1418   7.342   7.820   1.124
    4CHTO  H147 1419   7.400   7.780   1.040
    4CHTO   N13 1420   7.437   7.829   1.238
    4CHTO  H139 1421   7.520   7.893   1.210
    4CHTO  H140 1422   7.388   7.872   1.324
    4CHTO   C76 1423   7.223   7.716   1.153
    4CHTO  H148 1424   7.163   7.759   1.233
    4CHTO   O49 1425   7.140   7.705   1.033
    4CHTO   C77 1426   7.077   7.829   0.996
    4CHTO  H149 1427   7.017   7.865   1.080
    4CHTO   C88 1428   6.977   7.804   0.883
    4CHTO   O58 1429   6.869   7.713   0.927
    4CHTO  H136 1430   6.808   7.700   0.856
    4CHTO   O51 1431   7.279   7.563   1.195
    4CHTO   C78 1432   7.293   7.454   1.077
    4CHTO  H150 1433   7.302   7.503   0.978
    4CHTO   C80 1434   7.170   7.361   1.076
    4CHTO  H152 1435   7.151   7.326   1.180
    4CHTO   O55 1436   7.056   7.439   1.034
    4CHTO  H134 1437   6.978   7.388   1.043
    4CHTO   C84 1438   7.188   7.235   0.980
    4CHTO  H156 1439   7.184   7.271   0.878
    4CHTO   N15 1440   7.077   7.135   0.996
    4CHTO  H143 1441   7.072   7.101   1.097
    4CHTO  H144 1442   6.983   7.181   0.970
    4CHTO   C87 1443   7.327   7.169   1.001
    4CHTO  H159 1444   7.330   7.118   1.097
    4CHTO   O53 1445   7.438   7.279   0.994
    4CHTO   C82 1446   7.422   7.373   1.100
    4CHTO  H154 1447   7.417   7.320   1.195
    4CHTO   C89 1448   7.547   7.464   1.107
    4CHTO   O59 1449   7.567   7.541   0.989
    4CHTO  H137 1450   7.499   7.605   0.980
    4CHTO   O45 1451   7.352   7.057   0.883
    4CHTO   C67 1452   7.488   7.023   0.850
    4CHTO  H124 1453   7.541   7.111   0.814
    4CHTO   C65 1454   7.565   6.964   0.972
    4CHTO  H122 1455   7.550   7.033   1.055
    4CHTO   O44 1456   7.706   6.958   0.943
    4CHTO  H102 1457   7.753   6.932   1.020
    4CHTO   C63 1458   7.497   6.829   1.015
    4CHTO  H120 1459   7.392   6.849   1.037
    4CHTO   N11 1460   7.544   6.773   1.146
    4CHTO  H108 1461   7.540   6.848   1.222
    4CHTO  H109 1462   7.483   6.690   1.175
    4CHTO   C61 1463   7.497   6.726   0.895
    4CHTO  H118 1464   7.424   6.650   0.924
    4CHTO   O40 1465   7.450   6.783   0.770
    4CHTO   C68 1466   7.483   6.921   0.730
    4CHTO  H125 1467   7.400   6.954   0.664
    4CHTO   C72 1468   7.612   6.924   0.644
    4CHTO   O48 1469   7.593   6.861   0.517
    4CHTO  H105 1470   7.672   6.865   0.468
    4CHTO   O38 1471   7.625   6.663   0.870
    4CHTO   C55 1472   7.620   6.523   0.834
    4CHTO  H112 1473   7.528   6.504   0.776
    4CHTO   C56 1474   7.628   6.430   0.963
    4CHTO  H113 1475   7.715   6.464   1.021
    4CHTO   O42 1476   7.512   6.452   1.046
    4CHTO  H100 1477   7.521   6.406   1.127
    4CHTO   C57 1478   7.641   6.277   0.925
    4CHTO  H114 1479   7.545   6.246   0.885
    4CHTO   N10 1480   7.668   6.190   1.043
    4CHTO  H106 1481   7.774   6.182   1.062
    4CHTO  H107 1482   7.619   6.228   1.131
    4CHTO   C58 1483   7.750   6.257   0.816
    4CHTO  H115 1484   7.850   6.277   0.860
    4CHTO   O37 1485   7.729   6.346   0.705
    4CHTO   C59 1486   7.737   6.486   0.739
    4CHTO  H116 1487   7.833   6.507   0.786
    4CHTO   C70 1488   7.734   6.565   0.607
    4CHTO   O46 1489   7.615   6.544   0.529
    4CHTO  H103 1490   7.613   6.456   0.498
    4CHTO   O39 1491   7.747   6.097   0.756
    4CHTO   C60 1492   7.644   6.068   0.660
    4CHTO  H117 1493   7.560   6.135   0.676
    4CHTO   C62 1494   7.693   6.087   0.513
    4CHTO  H119 1495   7.723   6.194   0.504
    4CHTO   O43 1496   7.810   6.006   0.492
    4CHTO  H101 1497   7.845   6.021   0.406
    4CHTO   C66 1498   7.573   6.055   0.411
    4CHTO  H123 1499   7.489   6.120   0.435
    4CHTO   N12 1500   7.609   6.085   0.270
    4CHTO  H110 1501   7.525   6.065   0.205
    4CHTO  H111 1502   7.696   6.027   0.241
    4CHTO   C69 1503   7.527   5.908   0.431
    4CHTO  H126 1504   7.612   5.839   0.411
    4CHTO   O41 1505   7.481   5.892   0.577
    4CHTO   C64 1506   7.590   5.923   0.680
    4CHTO  H121 1507   7.675   5.851   0.668
    4CHTO   C71 1508   7.531   5.903   0.821
    4CHTO   O47 1509   7.489   5.767   0.842
    4CHTO  H104 1510   7.564   5.711   0.846
    4CHTO   O34 1511   7.405   5.868   0.333
    4CHTO   C49 1512   7.367   5.730   0.265
    4CHTO   H91 1513   7.344   5.752   0.161
    4CHTO   C47 1514   7.243   5.671   0.335
    4CHTO   H89 1515   7.213   5.581   0.275
    4CHTO   O33 1516   7.137   5.768   0.328
    4CHTO   H70 1517   7.057   5.731   0.362
    4CHTO   C45 1518   7.281   5.627   0.485
    4CHTO   H87 1519   7.318   5.716   0.538
    4CHTO    N8 1520   7.164   5.574   0.560
    4CHTO   H75 1521   7.085   5.648   0.561
    4CHTO   H76 1522   7.128   5.484   0.514
    4CHTO   C43 1523   7.405   5.524   0.483
    4CHTO   H85 1524   7.435   5.512   0.587
    4CHTO   O29 1525   7.514   5.575   0.402
    4CHTO   C50 1526   7.484   5.628   0.271
    4CHTO   H92 1527   7.574   5.681   0.237
    4CHTO   C54 1528   7.466   5.517   0.164
    4CHTO   O36 1529   7.585   5.438   0.151
    4CHTO   H72 1530   7.597   5.386   0.228
    4CHTO   O27 1531   7.369   5.393   0.437
    4CHTO   C37 1532   7.416   5.257   0.433
    4CHTO   H79 1533   7.483   5.243   0.347
    4CHTO   C38 1534   7.498   5.224   0.561
    4CHTO   H80 1535   7.441   5.258   0.649
    4CHTO   O31 1536   7.621   5.300   0.553
    4CHTO   H68 1537   7.670   5.291   0.632
    4CHTO   C39 1538   7.527   5.069   0.574
    4CHTO   H81 1539   7.592   5.041   0.492
    4CHTO    N7 1540   7.598   5.033   0.702
    4CHTO   H73 1541   7.693   5.085   0.707
    4CHTO   H74 1542   7.614   4.927   0.706
    4CHTO   C40 1543   7.392   4.990   0.559
    4CHTO   H82 1544   7.326   5.013   0.642
    4CHTO   O26 1545   7.333   5.022   0.432
    4CHTO   C41 1546   7.294   5.162   0.417
    4CHTO   H83 1547   7.218   5.187   0.493
    4CHTO   C52 1548   7.229   5.174   0.277
    4CHTO   O35 1549   7.172   5.308   0.248
    4CHTO   H71 1550   7.099   5.324   0.305
    4CHTO   O28 1551   7.412   4.847   0.547
    4CHTO   C42 1552   7.339   4.746   0.624
    4CHTO   H84 1553   7.320   4.668   0.550
    4CHTO   C44 1554   7.199   4.784   0.684
    4CHTO   H86 1555   7.212   4.867   0.753
    4CHTO   O32 1556   7.116   4.829   0.575
    4CHTO   H69 1557   7.099   4.759   0.515
    4CHTO   C48 1558   7.132   4.665   0.764
    4CHTO   H90 1559   7.106   4.587   0.692
    4CHTO    N9 1560   7.002   4.704   0.830
    4CHTO   H77 1561   6.977   4.807   0.809
    4CHTO   H78 1562   7.005   4.687   0.937
    4CHTO   C51 1563   7.236   4.603   0.866
    4CHTO   H93 1564   7.257   4.679   0.942
    4CHTO   O30 1565   7.354   4.564   0.794
    4CHTO   C46 1566   7.427   4.682   0.735
    4CHTO   H88 1567   7.446   4.755   0.814
    4CHTO   C53 1568   7.562   4.629   0.679
    4CHTO   O72 1569   7.644   4.577   0.783
    4CHTO  H199 1570   7.724   4.545   0.746
    4CHTO   O22 1571   7.186   4.482   0.927
    4CHTO   C31 1572   7.252   4.415   1.042
    4CHTO   H59 1573   7.178   4.341   1.080
    4CHTO   C29 1574   7.379   4.335   1.005
    4CHTO   H57 1575   7.453   4.405   0.964
    4CHTO   O21 1576   7.345   4.243   0.900
    4CHTO   H37 1577   7.422   4.201   0.868
    4CHTO   C27 1578   7.442   4.263   1.132
    4CHTO   H55 1579   7.370   4.189   1.169
    4CHTO    N5 1580   7.570   4.193   1.101
    4CHTO   H43 1581   7.643   4.264   1.065
    4CHTO   H44 1582   7.553   4.116   1.027
    4CHTO   C25 1583   7.462   4.369   1.246
    4CHTO   H53 1584   7.536   4.443   1.213
    4CHTO   O17 1585   7.337   4.438   1.272
    4CHTO   C32 1586   7.283   4.510   1.161
    4CHTO   H60 1587   7.354   4.586   1.129
    4CHTO   C36 1588   7.155   4.581   1.211
    4CHTO   O25 1589   7.186   4.683   1.307
    4CHTO   H40 1590   7.230   4.754   1.265
    4CHTO   O15 1591   7.512   4.303   1.382
    4CHTO   C19 1592   7.585   4.365   1.492
    4CHTO   H47 1593   7.602   4.282   1.562
    4CHTO   C20 1594   7.723   4.424   1.451
    4CHTO   H48 1595   7.713   4.501   1.372
    4CHTO   O19 1596   7.799   4.314   1.398
    4CHTO   H35 1597   7.880   4.346   1.362
    4CHTO   C21 1598   7.798   4.490   1.574
    4CHTO   H49 1599   7.823   4.411   1.645
    4CHTO    N4 1600   7.926   4.555   1.535
    4CHTO   H41 1601   7.907   4.635   1.465
    4CHTO   H42 1602   7.975   4.596   1.622
    4CHTO   C22 1603   7.702   4.588   1.646
    4CHTO   H50 1604   7.681   4.673   1.581
    4CHTO   O14 1605   7.580   4.522   1.681
    4CHTO   C23 1606   7.502   4.472   1.571
    4CHTO   H51 1607   7.474   4.558   1.508
    4CHTO   C34 1608   7.375   4.415   1.635
    4CHTO   O23 1609   7.280   4.373   1.538
    4CHTO   H38 1610   7.204   4.339   1.581
    4CHTO   O16 1611   7.755   4.632   1.773
    4CHTO   C24 1612   7.689   4.767   1.827
    4CHTO   H52 1613   7.598   4.793   1.772
    4CHTO   C26 1614   7.791   4.881   1.816
    4CHTO   H54 1615   7.885   4.850   1.869
    4CHTO   O20 1616   7.823   4.901   1.677
    4CHTO   H36 1617   7.871   4.828   1.644
    4CHTO   C30 1618   7.738   5.012   1.883
    4CHTO   H58 1619   7.654   5.052   1.825
    4CHTO    N6 1620   7.842   5.120   1.886
    4CHTO   H45 1621   7.934   5.087   1.841
    4CHTO   H46 1622   7.806   5.207   1.833
    4CHTO   C33 1623   7.682   4.983   2.026
    4CHTO   H61 1624   7.765   4.956   2.093
    4CHTO   O18 1625   7.590   4.873   2.021
    4CHTO   C28 1626   7.647   4.749   1.976
    4CHTO   H56 1627   7.735   4.724   2.035
    4CHTO   C35 1628   7.544   4.635   1.995
    4CHTO   O24 1629   7.422   4.655   1.923
    4CHTO   H39 1630   7.364   4.582   1.938
    4CHTO    O9 1631   7.622   5.100   2.084
    4CHTO   C13 1632   7.563   5.078   2.234
    4CHTO   H26 1633   7.599   4.980   2.272
    4CHTO   C11 1634   7.404   5.085   2.229
    4CHTO   H24 1635   7.367   4.985   2.204
    4CHTO    O8 1636   7.361   5.176   2.125
    4CHTO    H3 1637   7.268   5.171   2.116
    4CHTO    C9 1638   7.351   5.126   2.369
    4CHTO   H22 1639   7.398   5.057   2.440
    4CHTO    N2 1640   7.205   5.103   2.389
    4CHTO   H10 1641   7.157   5.193   2.424
    4CHTO   H11 1642   7.159   5.069   2.297
    4CHTO    C7 1643   7.401   5.273   2.401
    4CHTO   H20 1644   7.398   5.279   2.512
    4CHTO    O4 1645   7.536   5.298   2.355
    4CHTO   C14 1646   7.623   5.186   2.336
    4CHTO   H27 1647   7.637   5.137   2.435
    4CHTO   C18 1648   7.761   5.242   2.295
    4CHTO   O13 1649   7.860   5.139   2.286
    4CHTO    H7 1650   7.942   5.176   2.260
    4CHTO    O2 1651   7.305   5.387   2.336
    4CHTO    C1 1652   7.298   5.517   2.398
    4CHTO   H14 1653   7.276   5.590   2.317
    4CHTO    C2 1654   7.426   5.568   2.477
    4CHTO   H15 1655   7.449   5.492   2.553
    4CHTO    O6 1656   7.536   5.581   2.385
    4CHTO    H1 1657   7.563   5.496   2.355
    4CHTO    C3 1658   7.397   5.709   2.548
    4CHTO   H16 1659   7.393   5.786   2.470
    4CHTO    N1 1660   7.507   5.749   2.642
    4CHTO    H8 1661   7.486   5.845   2.686
    4CHTO    H9 1662   7.517   5.675   2.721
    4CHTO    C4 1663   7.256   5.712   2.619
    4CHTO   H17 1664   7.262   5.658   2.714
    4CHTO    O1 1665   7.153   5.656   2.537
    4CHTO    C5 1666   7.174   5.522   2.491
    4CHTO   H18 1667   7.193   5.457   2.577
    4CHTO   C16 1668   7.043   5.475   2.422
    4CHTO   O11 1669   7.005   5.560   2.312
    4CHTO    H5 1670   6.981   5.644   2.344
    4CHTO    O3 1671   7.217   5.849   2.642
    4CHTO    C6 1672   7.099   5.869   2.726
    4CHTO   H19 1673   7.044   5.777   2.745
    4CHTO    C8 1674   7.141   5.930   2.864
    4CHTO   H21 1675   7.200   6.020   2.845
    4CHTO    O7 1676   7.222   5.832   2.931
    4CHTO    H2 1677   7.305   5.822   2.888
    4CHTO   C12 1678   7.013   5.969   2.949
    4CHTO   H25 1679   6.966   5.873   2.978
    4CHTO    N3 1680   7.052   6.039   3.076
    4CHTO   H12 1681   7.104   6.131   3.054
    4CHTO   H13 1682   6.964   6.058   3.135
    4CHTO   C15 1683   6.912   6.051   2.861
    4CHTO   H28 1684   6.946   6.153   2.843
    4CHTO   O10 1685   6.772   6.056   2.923
    4CHTO    H4 1686   6.741   5.969   2.942
    4CHTO    O5 1687   6.884   5.986   2.736
    4CHTO   C10 1688   7.001   5.967   2.655
    4CHTO   H23 1689   7.050   6.064   2.641
    4CHTO   C17 1690   6.958   5.920   2.515
    4CHTO   O12 1691   6.890   5.794   2.518
    4CHTO    H6 1692   6.950   5.726   2.541
    5CHTO  H203 1693   7.647   2.843   2.089
    5CHTO   O82 1694   7.733   2.824   2.122
    5CHTO  C123 1695   7.728   2.791   2.262
    5CHTO  H227 1696   7.830   2.765   2.295
    5CHTO   O77 1697   7.686   2.915   2.325
    5CHTO  C118 1698   7.678   2.909   2.469
    5CHTO  H222 1699   7.775   2.877   2.509
    5CHTO  C125 1700   7.647   3.054   2.522
    5CHTO   O84 1701   7.522   3.105   2.473
    5CHTO  H205 1702   7.526   3.119   2.381
    5CHTO  C114 1703   7.570   2.807   2.509
    5CHTO  H218 1704   7.475   2.838   2.466
    5CHTO  C116 1705   7.604   2.666   2.451
    5CHTO  H220 1706   7.696   2.627   2.500
    5CHTO   O79 1707   7.497   2.576   2.485
    5CHTO  H201 1708   7.496   2.561   2.578
    5CHTO  C120 1709   7.626   2.675   2.294
    5CHTO  H224 1710   7.527   2.699   2.250
    5CHTO   N21 1711   7.670   2.545   2.237
    5CHTO  H211 1712   7.636   2.537   2.134
    5CHTO  H212 1713   7.631   2.463   2.294
    5CHTO   O75 1714   7.565   2.808   2.653
    5CHTO  C112 1715   7.415   2.821   2.709
    5CHTO  H216 1716   7.347   2.768   2.640
    5CHTO   O73 1717   7.384   2.961   2.716
    5CHTO  C113 1718   7.247   2.985   2.748
    5CHTO  H217 1719   7.183   2.928   2.677
    5CHTO  C124 1720   7.217   3.134   2.727
    5CHTO   O83 1721   7.230   3.171   2.589
    5CHTO  H204 1722   7.161   3.132   2.539
    5CHTO  C109 1723   7.217   2.938   2.893
    5CHTO  H213 1724   7.276   3.002   2.960
    5CHTO  C110 1725   7.257   2.788   2.910
    5CHTO  H214 1726   7.183   2.727   2.856
    5CHTO   O78 1727   7.247   2.750   3.048
    5CHTO  H200 1728   7.306   2.801   3.101
    5CHTO  C111 1729   7.400   2.758   2.853
    5CHTO  H215 1730   7.474   2.806   2.919
    5CHTO   N19 1731   7.432   2.613   2.850
    5CHTO  H207 1732   7.426   2.572   2.950
    5CHTO  H208 1733   7.532   2.599   2.812
    5CHTO   O74 1734   7.075   2.960   2.920
    5CHTO  C115 1735   7.038   2.987   3.071
    5CHTO  H219 1736   7.107   2.938   3.139
    5CHTO   O76 1737   7.048   3.143   3.107
    5CHTO  C122 1738   6.963   3.225   3.025
    5CHTO  H226 1739   7.011   3.234   2.927
    5CHTO  C126 1740   6.960   3.371   3.083
    5CHTO   O85 1741   7.087   3.436   3.078
    5CHTO  H206 1742   7.147   3.394   3.137
    5CHTO  C121 1743   6.816   3.167   3.009
    5CHTO  H225 1744   6.743   3.249   3.028
    5CHTO   O81 1745   6.797   3.125   2.873
    5CHTO  H202 1746   6.802   3.198   2.815
    5CHTO  C119 1747   6.789   3.052   3.111
    5CHTO  H223 1748   6.811   3.096   3.208
    5CHTO  C117 1749   6.891   2.932   3.092
    5CHTO  H221 1750   6.871   2.870   3.005
    5CHTO   N20 1751   6.883   2.837   3.208
    5CHTO  H209 1752   6.911   2.887   3.299
    5CHTO  H210 1753   6.784   2.796   3.217
    5CHTO   O80 1754   6.634   3.011   3.129
    5CHTO  C103 1755   6.538   3.001   3.003
    5CHTO  H190 1756   6.555   3.084   2.934
    5CHTO  C101 1757   6.545   2.865   2.923
    5CHTO  H188 1758   6.547   2.783   2.994
    5CHTO   O68 1759   6.677   2.861   2.842
    5CHTO  H168 1760   6.687   2.777   2.801
    5CHTO   C99 1761   6.417   2.846   2.828
    5CHTO  H186 1762   6.415   2.928   2.753
    5CHTO   N17 1763   6.415   2.716   2.753
    5CHTO  H174 1764   6.423   2.735   2.647
    5CHTO  H175 1765   6.494   2.651   2.787
    5CHTO   C97 1766   6.289   2.865   2.915
    5CHTO  H184 1767   6.291   2.789   2.994
    5CHTO   O64 1768   6.291   2.999   2.969
    5CHTO  C104 1769   6.394   3.022   3.066
    5CHTO  H191 1770   6.383   2.956   3.152
    5CHTO  C108 1771   6.375   3.165   3.118
    5CHTO   O71 1772   6.455   3.196   3.232
    5CHTO  H171 1773   6.439   3.285   3.259
    5CHTO   O62 1774   6.165   2.856   2.840
    5CHTO   C91 1775   6.042   2.846   2.917
    5CHTO  H178 1776   6.051   2.917   2.999
    5CHTO   C92 1777   6.028   2.704   2.982
    5CHTO  H179 1778   6.121   2.677   3.034
    5CHTO   O66 1779   5.930   2.714   3.087
    5CHTO  H166 1780   5.847   2.740   3.052
    5CHTO   C93 1781   5.981   2.592   2.883
    5CHTO  H180 1782   5.941   2.510   2.944
    5CHTO   N16 1783   6.092   2.530   2.806
    5CHTO  H172 1784   6.053   2.452   2.742
    5CHTO  H173 1785   6.142   2.605   2.747
    5CHTO   C94 1786   5.866   2.645   2.788
    5CHTO  H181 1787   5.902   2.662   2.686
    5CHTO   O61 1788   5.813   2.772   2.832
    5CHTO   C95 1789   5.909   2.879   2.834
    5CHTO  H182 1790   5.937   2.904   2.732
    5CHTO  C106 1791   5.836   3.005   2.893
    5CHTO   O69 1792   5.731   3.049   2.806
    5CHTO  H169 1793   5.689   3.124   2.844
    5CHTO   O63 1794   5.749   2.539   2.791
    5CHTO   C96 1795   5.709   2.490   2.648
    5CHTO  H183 1796   5.790   2.512   2.579
    5CHTO   C98 1797   5.579   2.553   2.593
    5CHTO  H185 1798   5.496   2.536   2.663
    5CHTO   O67 1799   5.599   2.696   2.590
    5CHTO  H167 1800   5.520   2.739   2.564
    5CHTO  C102 1801   5.543   2.496   2.447
    5CHTO  H189 1802   5.619   2.537   2.379
    5CHTO   N18 1803   5.412   2.542   2.394
    5CHTO  H176 1804   5.396   2.502   2.295
    5CHTO  H177 1805   5.332   2.510   2.459
    5CHTO  C105 1806   5.556   2.340   2.445
    5CHTO  H192 1807   5.467   2.296   2.489
    5CHTO   O65 1808   5.672   2.288   2.514
    5CHTO  C100 1809   5.690   2.334   2.648
    5CHTO  H187 1810   5.601   2.308   2.707
    5CHTO  C107 1811   5.812   2.261   2.711
    5CHTO   O70 1812   5.789   2.120   2.721
    5CHTO  H170 1813   5.864   2.079   2.760
    5CHTO   O57 1814   5.569   2.302   2.290
    5CHTO   C85 1815   5.510   2.182   2.238
    5CHTO  H157 1816   5.406   2.180   2.277
    5CHTO   C83 1817   5.580   2.056   2.299
    5CHTO  H155 1818   5.560   2.054   2.406
    5CHTO   O56 1819   5.724   2.068   2.285
    5CHTO  H135 1820   5.766   1.997   2.330
    5CHTO   C81 1821   5.521   1.928   2.235
    5CHTO  H153 1822   5.413   1.929   2.251
    5CHTO   N14 1823   5.566   1.802   2.300
    5CHTO  H141 1824   5.671   1.789   2.285
    5CHTO  H142 1825   5.513   1.719   2.259
    5CHTO   C79 1826   5.547   1.929   2.080
    5CHTO  H151 1827   5.499   1.840   2.038
    5CHTO   O52 1828   5.479   2.045   2.021
    5CHTO   C86 1829   5.515   2.174   2.080
    5CHTO  H158 1830   5.617   2.194   2.042
    5CHTO   C90 1831   5.424   2.281   2.014
    5CHTO   O60 1832   5.460   2.415   2.051
    5CHTO  H138 1833   5.544   2.437   2.015
    5CHTO   O50 1834   5.686   1.929   2.043
    5CHTO   C73 1835   5.771   1.887   1.935
    5CHTO  H145 1836   5.715   1.884   1.841
    5CHTO   C74 1837   5.828   1.744   1.963
    5CHTO  H146 1838   5.742   1.677   1.975
    5CHTO   O54 1839   5.898   1.700   1.845
    5CHTO  H133 1840   5.930   1.612   1.857
    5CHTO   C75 1841   5.916   1.749   2.093
    5CHTO  H147 1842   5.852   1.777   2.178
    5CHTO   N13 1843   5.975   1.618   2.131
    5CHTO  H139 1844   6.034   1.628   2.221
    5CHTO  H140 1845   5.896   1.547   2.149
    5CHTO   C76 1846   6.028   1.864   2.080
    5CHTO  H148 1847   6.099   1.832   2.003
    5CHTO   O49 1848   5.969   1.993   2.041
    5CHTO   C77 1849   5.890   1.986   1.920
    5CHTO  H149 1850   5.953   1.953   1.838
    5CHTO   C88 1851   5.838   2.125   1.880
    5CHTO   O58 1852   5.944   2.212   1.835
    5CHTO  H136 1853   5.908   2.295   1.810
    5CHTO   O51 1854   6.097   1.886   2.226
    5CHTO   C78 1855   6.220   1.983   2.237
    5CHTO  H150 1856   6.203   2.076   2.179
    5CHTO   C80 1857   6.350   1.915   2.186
    5CHTO  H152 1858   6.359   1.815   2.233
    5CHTO   O55 1859   6.335   1.896   2.044
    5CHTO  H134 1860   6.407   1.847   2.011
    5CHTO   C84 1861   6.480   2.001   2.218
    5CHTO  H156 1862   6.476   2.089   2.155
    5CHTO   N15 1863   6.607   1.929   2.182
    5CHTO  H143 1864   6.616   1.839   2.240
    5CHTO  H144 1865   6.691   1.992   2.203
    5CHTO   C87 1866   6.479   2.046   2.366
    5CHTO  H159 1867   6.494   1.959   2.431
    5CHTO   O53 1868   6.344   2.114   2.398
    5CHTO   C82 1869   6.236   2.021   2.385
    5CHTO  H154 1870   6.255   1.932   2.445
    5CHTO   C89 1871   6.106   2.085   2.439
    5CHTO   O59 1872   6.116   2.113   2.579
    5CHTO  H137 1873   6.037   2.151   2.610
    5CHTO   O45 1874   6.598   2.155   2.395
    5CHTO   C67 1875   6.606   2.196   2.533
    5CHTO  H124 1876   6.505   2.212   2.571
    5CHTO   C65 1877   6.677   2.087   2.622
    5CHTO  H122 1878   6.742   2.031   2.555
    5CHTO   O44 1879   6.574   2.001   2.672
    5CHTO  H102 1880   6.534   1.953   2.601
    5CHTO   C63 1881   6.775   2.151   2.729
    5CHTO  H120 1882   6.865   2.184   2.677
    5CHTO   N11 1883   6.832   2.056   2.830
    5CHTO  H108 1884   6.877   1.972   2.780
    5CHTO  H109 1885   6.755   2.021   2.895
    5CHTO   C61 1886   6.709   2.280   2.789
    5CHTO  H118 1887   6.784   2.326   2.855
    5CHTO   O40 1888   6.677   2.380   2.687
    5CHTO   C68 1889   6.678   2.336   2.547
    5CHTO  H125 1890   6.784   2.328   2.513
    5CHTO   C72 1891   6.611   2.444   2.460
    5CHTO   O48 1892   6.682   2.568   2.462
    5CHTO  H105 1893   6.638   2.631   2.407
    5CHTO   O38 1894   6.591   2.247   2.865
    5CHTO   C55 1895   6.506   2.348   2.922
    5CHTO  H112 1896   6.464   2.408   2.839
    5CHTO   C56 1897   6.581   2.439   3.030
    5CHTO  H113 1898   6.645   2.372   3.089
    5CHTO   O42 1899   6.669   2.531   2.963
    5CHTO  H100 1900   6.737   2.484   2.919
    5CHTO   C57 1901   6.480   2.517   3.125
    5CHTO  H114 1902   6.430   2.593   3.065
    5CHTO   N10 1903   6.546   2.586   3.239
    5CHTO  H106 1904   6.635   2.532   3.269
    5CHTO  H107 1905   6.574   2.686   3.210
    5CHTO   C58 1906   6.373   2.416   3.176
    5CHTO  H115 1907   6.425   2.331   3.227
    5CHTO   O37 1908   6.304   2.367   3.060
    5CHTO   C59 1909   6.384   2.274   2.985
    5CHTO  H116 1910   6.418   2.193   3.050
    5CHTO   C70 1911   6.298   2.211   2.875
    5CHTO   O46 1912   6.185   2.139   2.927
    5CHTO  H103 1913   6.136   2.102   2.856
    5CHTO   O39 1914   6.263   2.485   3.290
    5CHTO   C60 1915   6.122   2.467   3.266
    5CHTO  H117 1916   6.098   2.509   3.168
    5CHTO   C62 1917   6.077   2.318   3.266
    5CHTO  H119 1918   6.138   2.265   3.190
    5CHTO   O43 1919   6.105   2.257   3.393
    5CHTO  H101 1920   6.055   2.298   3.461
    5CHTO   C66 1921   5.923   2.311   3.223
    5CHTO  H123 1922   5.910   2.366   3.129
    5CHTO   N12 1923   5.881   2.171   3.195
    5CHTO  H110 1924   5.801   2.140   3.261
    5CHTO  H111 1925   5.852   2.160   3.091
    5CHTO   C69 1926   5.837   2.382   3.330
    5CHTO  H126 1927   5.851   2.332   3.429
    5CHTO   O41 1928   5.886   2.535   3.340
    5CHTO   C64 1929   6.039   2.547   3.371
    5CHTO  H121 1930   6.059   2.504   3.471
    5CHTO   C71 1931   6.082   2.696   3.375
    5CHTO   O47 1932   6.017   2.764   3.483
    5CHTO  H104 1933   6.043   2.854   3.483
    5CHTO   O34 1934   5.680   2.377   3.295
    5CHTO   C49 1935   5.548   2.457   3.290
    5CHTO   H91 1936   5.469   2.382   3.288
    5CHTO   C47 1937   5.542   2.540   3.160
    5CHTO   H89 1938   5.519   2.465   3.080
    5CHTO   O33 1939   5.670   2.599   3.129
    5CHTO   H70 1940   5.695   2.660   3.197
    5CHTO   C45 1941   5.432   2.658   3.165
    5CHTO   H87 1942   5.484   2.751   3.193
    5CHTO    N8 1943   5.371   2.678   3.031
    5CHTO   H75 1944   5.400   2.773   2.991
    5CHTO   H76 1945   5.263   2.671   3.036
    5CHTO   C43 1946   5.328   2.636   3.285
    5CHTO   H85 1947   5.261   2.722   3.284
    5CHTO   O29 1948   5.401   2.628   3.409
    5CHTO   C50 1949   5.522   2.550   3.414
    5CHTO   H92 1950   5.608   2.617   3.426
    5CHTO   C54 1951   5.517   2.471   3.548
    5CHTO   O36 1952   5.637   2.400   3.577
    5CHTO   H72 1953   5.649   2.331   3.515
    5CHTO   O27 1954   5.245   2.520   3.267
    5CHTO   C37 1955   5.107   2.503   3.305
    5CHTO   H79 1956   5.081   2.573   3.386
    5CHTO   C38 1957   5.011   2.534   3.186
    5CHTO   H80 1958   5.045   2.475   3.098
    5CHTO   O31 1959   5.026   2.674   3.155
    5CHTO   H68 1960   4.978   2.695   3.077
    5CHTO   C39 1961   4.861   2.497   3.219
    5CHTO   H81 1962   4.828   2.566   3.297
    5CHTO    N7 1963   4.769   2.516   3.101
    5CHTO   H73 1964   4.722   2.423   3.073
    5CHTO   H74 1965   4.694   2.590   3.124
    5CHTO   C40 1966   4.852   2.352   3.281
    5CHTO   H82 1967   4.875   2.279   3.202
    5CHTO   O26 1968   4.943   2.341   3.391
    5CHTO   C41 1969   5.084   2.358   3.355
    5CHTO   H83 1970   5.112   2.286   3.277
    5CHTO   C52 1971   5.168   2.327   3.481
    5CHTO   O35 1972   5.147   2.191   3.531
    5CHTO   H71 1973   5.180   2.129   3.468
    5CHTO   O28 1974   4.718   2.319   3.325
    5CHTO   C42 1975   4.671   2.301   3.463
    5CHTO   H84 1976   4.563   2.286   3.450
    5CHTO   C44 1977   4.686   2.423   3.559
    5CHTO   H86 1978   4.792   2.450   3.565
    5CHTO   O32 1979   4.615   2.532   3.498
    5CHTO   H69 1980   4.627   2.611   3.548
    5CHTO   C48 1981   4.635   2.391   3.706
    5CHTO   H90 1982   4.528   2.372   3.702
    5CHTO    N9 1983   4.653   2.507   3.801
    5CHTO   H77 1984   4.697   2.592   3.751
    5CHTO   H78 1985   4.558   2.534   3.845
    5CHTO   C51 1986   4.708   2.261   3.755
    5CHTO   H93 1987   4.816   2.279   3.750
    5CHTO   O30 1988   4.669   2.154   3.668
    5CHTO   C46 1989   4.726   2.171   3.529
    5CHTO   H88 1990   4.835   2.176   3.537
    5CHTO   C53 1991   4.686   2.047   3.447
    5CHTO   O72 1992   4.743   1.928   3.503
    5CHTO  H199 1993   4.700   1.907   3.584
    5CHTO   O22 1994   4.671   2.215   3.887
    5CHTO   C31 1995   4.770   2.143   3.970
    5CHTO   H59 1996   4.715   2.108   0.019
    5CHTO   C29 1997   4.831   2.017   3.903
    5CHTO   H57 1998   4.866   2.048   3.803
    5CHTO   O21 1999   4.724   1.924   3.880
    5CHTO   H37 2000   4.693   1.888   3.961
    5CHTO   C27 2001   4.952   1.955   3.983
    5CHTO   H55 2002   4.915   1.915   0.038
    5CHTO    N5 2003   5.019   1.844   3.909
    5CHTO   H43 2004   4.947   1.766   3.888
    5CHTO   H44 2005   5.100   1.805   3.967
    5CHTO   C25 2006   5.052   2.071   4.014
    5CHTO   H53 2007   5.080   2.118   3.919
    5CHTO   O17 2008   4.985   2.170   0.056
    5CHTO   C32 2009   4.882   2.240   4.024
    5CHTO   H60 2010   4.928   2.290   3.939
    5CHTO   C36 2011   4.823   2.350   0.074
    5CHTO   O25 2012   4.766   2.298   0.195
    5CHTO   H40 2013   4.733   2.369   0.247
    5CHTO   O15 2014   5.187   2.023   0.048
    5CHTO   C19 2015   5.314   2.092   0.074
    5CHTO   H47 2016   5.284   2.195   0.096
    5CHTO   C20 2017   5.393   2.035   0.196
    5CHTO   H48 2018   5.417   1.928   0.182
    5CHTO   O19 2019   5.306   2.045   0.310
    5CHTO   H35 2020   5.287   2.134   0.331
    5CHTO   C21 2021   5.529   2.112   0.221
    5CHTO   H49 2022   5.505   2.214   0.254
    5CHTO    N4 2023   5.611   2.052   0.329
    5CHTO   H41 2024   5.701   2.111   0.344
    5CHTO   H42 2025   5.639   1.951   0.303
    5CHTO   C22 2026   5.607   2.125   0.088
    5CHTO   H50 2027   5.645   2.027   0.058
    5CHTO   O14 2028   5.525   2.179   4.024
    5CHTO   C23 2029   5.410   2.099   3.991
    5CHTO   H51 2030   5.447   2.000   3.962
    5CHTO   C34 2031   5.347   2.161   3.866
    5CHTO   O23 2032   5.301   2.295   3.885
    5CHTO   H38 2033   5.228   2.296   3.945
    5CHTO   O16 2034   5.714   2.221   0.100
    5CHTO   C24 2035   5.830   2.206   4.032
    5CHTO   H52 2036   5.796   2.153   3.943
    5CHTO   C26 2037   5.946   2.127   0.057
    5CHTO   H54 2038   5.963   2.168   0.159
    5CHTO   O20 2039   5.904   1.990   0.070
    5CHTO   H36 2040   5.837   1.983   0.135
    5CHTO   C30 2041   6.080   2.140   4.017
    5CHTO   H58 2042   6.070   2.089   3.920
    5CHTO    N6 2043   6.193   2.073   0.047
    5CHTO   H45 2044   6.284   2.084   4.030
    5CHTO   H46 2045   6.172   1.968   0.060
    5CHTO   C33 2046   6.107   2.290   3.987
    5CHTO   H61 2047   6.114   2.345   0.042
    5CHTO   O18 2048   5.995   2.342   3.913
    5CHTO   C28 2049   5.873   2.348   3.988
    5CHTO   H56 2050   5.885   2.411   0.036
    5CHTO   C35 2051   5.765   2.410   3.897
    5CHTO   O24 2052   5.794   2.546   3.859
    5CHTO   H39 2053   5.868   2.548   3.802
    5CHTO    O9 2054   6.231   2.317   3.919
    5CHTO   C13 2055   6.238   2.271   3.764
    5CHTO   H26 2056   6.137   2.241   3.732
    5CHTO   C11 2057   6.342   2.151   3.752
    5CHTO   H24 2058   6.292   2.060   3.790
    5CHTO    O8 2059   6.458   2.175   3.834
    5CHTO    H3 2060   6.503   2.252   3.806
    5CHTO    C9 2061   6.376   2.133   3.602
    5CHTO   H22 2062   6.280   2.129   3.549
    5CHTO    N2 2063   6.440   2.003   3.571
    5CHTO   H10 2064   6.537   1.997   3.619
    5CHTO   H11 2065   6.377   1.922   3.604
    5CHTO    C7 2066   6.456   2.261   3.553
    5CHTO   H20 2067   6.434   2.266   3.444
    5CHTO    O4 2068   6.413   2.384   3.616
    5CHTO   C14 2069   6.279   2.392   3.667
    5CHTO   H27 2070   6.212   2.388   3.580
    5CHTO   C18 2071   6.259   2.532   3.731
    5CHTO   O13 2072   6.356   2.560   3.833
    5CHTO    H7 2073   6.340   2.645   3.869
    5CHTO    O2 2074   6.612   2.248   3.578
    5CHTO    C1 2075   6.693   2.330   3.493
    5CHTO   H14 2076   6.633   2.413   3.451
    5CHTO    C2 2077   6.757   2.248   3.373
    5CHTO   H15 2078   6.803   2.159   3.419
    5CHTO    O6 2079   6.651   2.206   3.285
    5CHTO    H1 2080   6.609   2.280   3.246
    5CHTO    C3 2081   6.869   2.334   3.297
    5CHTO   H16 2082   6.823   2.422   3.250
    5CHTO    N1 2083   6.937   2.254   3.189
    5CHTO    H8 2084   6.924   2.303   3.093
    5CHTO    H9 2085   7.042   2.242   3.209
    5CHTO    C4 2086   6.968   2.389   3.406
    5CHTO   H17 2087   7.015   2.305   3.457
    5CHTO    O1 2088   6.896   2.470   3.500
    5CHTO    C5 2089   6.804   2.396   3.581
    5CHTO   H18 2090   6.856   2.318   3.635
    5CHTO   C16 2091   6.746   2.497   3.684
    5CHTO   O11 2092   6.672   2.433   3.788
    5CHTO    H5 2093   6.593   2.397   3.753
    5CHTO    O3 2094   7.069   2.477   3.351
    5CHTO    C6 2095   7.197   2.472   3.423
    5CHTO   H19 2096   7.190   2.418   3.517
    5CHTO    C8 2097   7.306   2.403   3.336
    5CHTO   H21 2098   7.313   2.455   3.241
    5CHTO    O7 2099   7.264   2.267   3.314
    5CHTO    H2 2100   7.190   2.264   3.257
    5CHTO   C12 2101   7.446   2.410   3.410
    5CHTO   H25 2102   7.437   2.348   3.502
    5CHTO    N3 2103   7.556   2.348   3.327
    5CHTO   H12 2104   7.565   2.399   3.233
    5CHTO   H13 2105   7.535   2.243   3.311
    5CHTO   C15 2106   7.477   2.558   3.452
    5CHTO   H28 2107   7.498   2.621   3.365
    5CHTO   O10 2108   7.595   2.568   3.552
    5CHTO    H4 2109   7.617   2.658   3.567
    5CHTO    O5 2110   7.368   2.614   3.528
    5CHTO   C10 2111   7.243   2.617   3.459
    5CHTO   H23 2112   7.255   2.675   3.367
    5CHTO   C17 2113   7.141   2.691   3.547
    5CHTO   O12 2114   7.119   2.627   3.673
    5CHTO    H6 2115   7.196   2.634   3.726
    6CHTO  H203 2116   6.741   3.614   0.916
    6CHTO   O82 2117   6.659   3.573   0.898
    6CHTO  C123 2118   6.558   3.673   0.872
    6CHTO  H227 2119   6.590   3.733   0.786
    6CHTO   O77 2120   6.441   3.594   0.839
    6CHTO  C118 2121   6.329   3.671   0.791
    6CHTO  H222 2122   6.357   3.726   0.700
    6CHTO  C125 2123   6.219   3.565   0.756
    6CHTO   O84 2124   6.099   3.622   0.703
    6CHTO  H205 2125   6.038   3.554   0.684
    6CHTO  C114 2126   6.282   3.771   0.900
    6CHTO  H218 2127   6.236   3.714   0.981
    6CHTO  C116 2128   6.400   3.854   0.960
    6CHTO  H220 2129   6.431   3.932   0.886
    6CHTO   O79 2130   6.350   3.925   1.075
    6CHTO  H201 2131   6.288   3.991   1.049
    6CHTO  C120 2132   6.524   3.763   0.996
    6CHTO  H224 2133   6.493   3.700   1.082
    6CHTO   N21 2134   6.641   3.843   1.042
    6CHTO  H211 2135   6.609   3.932   1.094
    6CHTO  H212 2136   6.704   3.870   0.958
    6CHTO   O75 2137   6.185   3.853   0.834
    6CHTO  C112 2138   6.054   3.893   0.923
    6CHTO  H216 2139   6.088   3.928   1.022
    6CHTO   O73 2140   5.972   3.776   0.933
    6CHTO  C113 2141   5.852   3.791   1.010
    6CHTO  H217 2142   5.879   3.818   1.114
    6CHTO  C124 2143   5.789   3.651   1.012
    6CHTO   O83 2144   5.678   3.636   1.100
    6CHTO  H204 2145   5.606   3.688   1.069
    6CHTO  C109 2146   5.759   3.898   0.944
    6CHTO  H213 2147   5.733   3.860   0.844
    6CHTO  C110 2148   5.839   4.032   0.927
    6CHTO  H214 2149   5.859   4.073   1.025
    6CHTO   O78 2150   5.754   4.124   0.856
    6CHTO  H200 2151   5.795   4.208   0.851
    6CHTO  C111 2152   5.973   4.008   0.852
    6CHTO  H215 2153   5.950   3.973   0.750
    6CHTO   N19 2154   6.056   4.130   0.838
    6CHTO  H207 2155   6.146   4.108   0.783
    6CHTO  H208 2156   6.082   4.169   0.936
    6CHTO   O74 2157   5.634   3.919   1.020
    6CHTO  C115 2158   5.644   3.968   1.177
    6CHTO  H219 2159   5.720   3.912   1.233
    6CHTO   O76 2160   5.691   4.120   1.189
    6CHTO  C122 2161   5.585   4.215   1.178
    6CHTO  H226 2162   5.538   4.202   1.080
    6CHTO  C126 2163   5.649   4.358   1.177
    6CHTO   O85 2164   5.554   4.463   1.156
    6CHTO  H206 2165   5.497   4.469   1.229
    6CHTO  C121 2166   5.479   4.198   1.295
    6CHTO  H225 2167   5.501   4.271   1.375
    6CHTO   O81 2168   5.348   4.225   1.243
    6CHTO  H202 2169   5.341   4.315   1.217
    6CHTO  C119 2170   5.480   4.055   1.357
    6CHTO  H223 2171   5.566   4.052   1.424
    6CHTO  C117 2172   5.503   3.945   1.246
    6CHTO  H221 2173   5.431   3.947   1.163
    6CHTO   N20 2174   5.494   3.807   1.303
    6CHTO  H209 2175   5.571   3.792   1.376
    6CHTO  H210 2176   5.502   3.734   1.224
    6CHTO   O80 2177   5.357   4.031   1.459
    6CHTO  C103 2178   5.376   4.058   1.611
    6CHTO  H190 2179   5.475   4.028   1.645
    6CHTO  C101 2180   5.349   4.206   1.660
    6CHTO  H188 2181   5.260   4.244   1.610
    6CHTO   O68 2182   5.469   4.294   1.618
    6CHTO  H168 2183   5.451   4.384   1.637
    6CHTO   C99 2184   5.325   4.213   1.819
    6CHTO  H186 2185   5.420   4.185   1.871
    6CHTO   N17 2186   5.287   4.350   1.868
    6CHTO  H174 2187   5.364   4.389   1.934
    6CHTO  H175 2188   5.191   4.350   1.917
    6CHTO   C97 2189   5.221   4.105   1.860
    6CHTO  H184 2190   5.124   4.130   1.814
    6CHTO   O64 2191   5.269   3.976   1.820
    6CHTO  C104 2192   5.272   3.959   1.677
    6CHTO  H191 2193   5.174   3.977   1.634
    6CHTO  C108 2194   5.307   3.813   1.646
    6CHTO   O71 2195   5.203   3.724   1.690
    6CHTO  H171 2196   5.226   3.636   1.668
    6CHTO   O62 2197   5.207   4.090   2.003
    6CHTO   C91 2198   5.076   4.059   2.054
    6CHTO  H178 2199   5.021   4.153   2.056
    6CHTO   C92 2200   5.094   4.015   2.204
    6CHTO  H179 2201   5.151   4.091   2.259
    6CHTO   O66 2202   4.964   4.014   2.266
    6CHTO  H166 2203   4.907   3.953   2.224
    6CHTO   C93 2204   5.157   3.870   2.218
    6CHTO  H180 2205   5.121   3.826   2.312
    6CHTO   N16 2206   5.305   3.873   2.231
    6CHTO  H172 2207   5.333   3.927   2.320
    6CHTO  H173 2208   5.350   3.918   2.144
    6CHTO   C94 2209   5.112   3.778   2.097
    6CHTO  H181 2210   5.181   3.784   2.013
    6CHTO   O61 2211   4.984   3.822   2.048
    6CHTO   C95 2212   4.990   3.947   1.977
    6CHTO  H182 2213   5.033   3.928   1.878
    6CHTO  C106 2214   4.842   3.993   1.951
    6CHTO   O69 2215   4.838   4.109   1.868
    6CHTO  H169 2216   4.749   4.134   1.854
    6CHTO   O63 2217   5.098   3.630   2.145
    6CHTO   C96 2218   5.141   3.525   2.033
    6CHTO  H183 2219   5.226   3.567   1.978
    6CHTO   C98 2220   5.032   3.490   1.928
    6CHTO  H185 2221   4.942   3.451   1.978
    6CHTO   O67 2222   4.991   3.610   1.861
    6CHTO  H167 2223   4.947   3.668   1.921
    6CHTO  C102 2224   5.089   3.383   1.823
    6CHTO  H189 2225   5.171   3.435   1.771
    6CHTO   N18 2226   4.996   3.341   1.715
    6CHTO  H176 2227   4.964   3.427   1.658
    6CHTO  H177 2228   5.045   3.271   1.649
    6CHTO  C105 2229   5.149   3.261   1.899
    6CHTO  H192 2230   5.093   3.170   1.876
    6CHTO   O65 2231   5.148   3.271   2.043
    6CHTO  C100 2232   5.191   3.394   2.106
    6CHTO  H187 2233   5.147   3.393   2.207
    6CHTO  C107 2234   5.345   3.395   2.125
    6CHTO   O70 2235   5.388   3.288   2.209
    6CHTO  H170 2236   5.378   3.206   2.165
    6CHTO   O57 2237   5.295   3.249   1.842
    6CHTO   C85 2238   5.336   3.130   1.772
    6CHTO  H157 2239   5.245   3.091   1.721
    6CHTO   C83 2240   5.376   3.020   1.876
    6CHTO  H155 2241   5.285   2.989   1.929
    6CHTO   O56 2242   5.463   3.076   1.976
    6CHTO  H135 2243   5.545   3.101   1.938
    6CHTO   C81 2244   5.434   2.896   1.803
    6CHTO  H153 2245   5.357   2.857   1.736
    6CHTO   N14 2246   5.464   2.782   1.894
    6CHTO  H141 2247   5.495   2.697   1.837
    6CHTO  H142 2248   5.376   2.756   1.950
    6CHTO   C79 2249   5.558   2.938   1.715
    6CHTO  H151 2250   5.591   2.850   1.661
    6CHTO   O52 2251   5.514   3.035   1.615
    6CHTO   C86 2252   5.454   3.156   1.671
    6CHTO  H158 2253   5.538   3.209   1.720
    6CHTO   C90 2254   5.410   3.247   1.553
    6CHTO   O60 2255   5.378   3.380   1.596
    6CHTO  H138 2256   5.457   3.424   1.622
    6CHTO   O50 2257   5.670   2.991   1.789
    6CHTO   C73 2258   5.809   3.025   1.801
    6CHTO  H145 2259   5.870   2.934   1.807
    6CHTO   C74 2260   5.832   3.108   1.932
    6CHTO  H146 2261   5.798   3.046   2.016
    6CHTO   O54 2262   5.974   3.127   1.952
    6CHTO  H133 2263   6.010   3.178   1.882
    6CHTO   C75 2264   5.751   3.244   1.921
    6CHTO  H147 2265   5.645   3.220   1.912
    6CHTO   N13 2266   5.762   3.330   2.042
    6CHTO  H139 2267   5.824   3.284   2.117
    6CHTO  H140 2268   5.664   3.348   2.084
    6CHTO   C76 2269   5.792   3.322   1.787
    6CHTO  H148 2270   5.893   3.362   1.799
    6CHTO   O49 2271   5.787   3.234   1.670
    6CHTO   C77 2272   5.859   3.111   1.681
    6CHTO  H149 2273   5.965   3.132   1.695
    6CHTO   C88 2274   5.851   3.036   1.547
    6CHTO   O58 2275   5.915   3.113   1.438
    6CHTO  H136 2276   5.908   3.065   1.357
    6CHTO   O51 2277   5.681   3.435   1.751
    6CHTO   C78 2278   5.741   3.580   1.727
    6CHTO  H150 2279   5.850   3.583   1.748
    6CHTO   C80 2280   5.669   3.680   1.820
    6CHTO  H152 2281   5.559   3.675   1.800
    6CHTO   O55 2282   5.690   3.637   1.956
    6CHTO  H134 2283   5.780   3.642   1.979
    6CHTO   C84 2284   5.719   3.828   1.797
    6CHTO  H156 2285   5.824   3.833   1.827
    6CHTO   N15 2286   5.644   3.928   1.882
    6CHTO  H143 2287   5.657   3.904   1.986
    6CHTO  H144 2288   5.682   4.026   1.864
    6CHTO   C87 2289   5.709   3.863   1.646
    6CHTO  H159 2290   5.604   3.865   1.617
    6CHTO   O53 2291   5.781   3.753   1.564
    6CHTO   C82 2292   5.720   3.625   1.581
    6CHTO  H154 2293   5.614   3.630   1.556
    6CHTO   C89 2294   5.785   3.530   1.477
    6CHTO   O59 2295   5.709   3.411   1.457
    6CHTO  H137 2296   5.628   3.432   1.413
    6CHTO   O45 2297   5.773   4.013   1.614
    6CHTO   C67 2298   5.912   4.018   1.577
    6CHTO  H124 2299   5.962   3.928   1.611
    6CHTO   C65 2300   5.927   4.029   1.420
    6CHTO  H122 2301   5.827   4.049   1.382
    6CHTO   O44 2302   5.972   3.902   1.371
    6CHTO  H102 2303   5.907   3.836   1.387
    6CHTO   C63 2304   6.011   4.155   1.377
    6CHTO  H120 2305   5.956   4.245   1.404
    6CHTO   N11 2306   6.031   4.176   1.230
    6CHTO  H108 2307   5.937   4.174   1.180
    6CHTO  H109 2308   6.079   4.270   1.212
    6CHTO   C61 2309   6.145   4.157   1.460
    6CHTO  H118 2310   6.193   4.254   1.440
    6CHTO   O40 2311   6.123   4.151   1.604
    6CHTO   C68 2312   5.984   4.138   1.650
    6CHTO  H125 2313   5.930   4.232   1.629
    6CHTO   C72 2314   5.986   4.119   1.803
    6CHTO   O48 2315   6.041   4.233   1.871
    6CHTO  H105 2316   5.984   4.306   1.863
    6CHTO   O38 2317   6.231   4.048   1.422
    6CHTO   C55 2318   6.366   4.054   1.471
    6CHTO  H112 2319   6.371   4.110   1.565
    6CHTO   C56 2320   6.463   4.115   1.361
    6CHTO  H113 2321   6.448   4.057   1.269
    6CHTO   O42 2322   6.423   4.250   1.331
    6CHTO  H100 2323   6.475   4.284   1.261
    6CHTO   C57 2324   6.614   4.106   1.408
    6CHTO  H114 2325   6.625   4.177   1.491
    6CHTO   N10 2326   6.709   4.147   1.302
    6CHTO  H106 2327   6.804   4.097   1.313
    6CHTO  H107 2328   6.725   4.254   1.305
    6CHTO   C58 2329   6.645   3.963   1.460
    6CHTO  H115 2330   6.647   3.892   1.374
    6CHTO   O37 2331   6.548   3.918   1.557
    6CHTO   C59 2332   6.415   3.911   1.505
    6CHTO  H116 2333   6.413   3.848   1.416
    6CHTO   C70 2334   6.323   3.846   1.610
    6CHTO   O46 2335   6.354   3.708   1.631
    6CHTO  H103 2336   6.331   3.658   1.555
    6CHTO   O39 2337   6.786   3.963   1.537
    6CHTO   C60 2338   6.850   3.834   1.546
    6CHTO  H117 2339   6.776   3.759   1.572
    6CHTO   C62 2340   6.918   3.793   1.411
    6CHTO  H119 2341   6.836   3.783   1.337
    6CHTO   O43 2342   7.007   3.897   1.367
    6CHTO  H101 2343   6.959   3.974   1.345
    6CHTO   C66 2344   6.990   3.650   1.429
    6CHTO  H123 2345   6.916   3.578   1.464
    6CHTO   N12 2346   7.042   3.597   1.300
    6CHTO  H110 2347   7.087   3.501   1.316
    6CHTO  H111 2348   7.112   3.667   1.257
    6CHTO   C69 2349   7.099   3.663   1.539
    6CHTO  H126 2350   7.175   3.739   1.510
    6CHTO   O41 2351   7.030   3.706   1.670
    6CHTO   C64 2352   6.954   3.837   1.661
    6CHTO  H121 2353   7.025   3.921   1.644
    6CHTO   C71 2354   6.883   3.863   1.797
    6CHTO   O47 2355   6.978   3.874   1.903
    6CHTO  H104 2356   6.933   3.890   1.984
    6CHTO   O34 2357   7.173   3.530   1.568
    6CHTO   C49 2358   7.283   3.441   1.512
    6CHTO   H91 2359   7.236   3.377   1.437
    6CHTO   C47 2360   7.338   3.355   1.628
    6CHTO   H89 2361   7.405   3.281   1.578
    6CHTO   O33 2362   7.232   3.282   1.693
    6CHTO   H70 2363   7.193   3.221   1.633
    6CHTO   C45 2364   7.417   3.445   1.737
    6CHTO   H87 2365   7.346   3.473   1.816
    6CHTO    N8 2366   7.525   3.362   1.797
    6CHTO   H75 2367   7.600   3.340   1.722
    6CHTO   H76 2368   7.570   3.415   1.879
    6CHTO   C43 2369   7.463   3.587   1.672
    6CHTO   H85 2370   7.376   3.651   1.677
    6CHTO   O29 2371   7.506   3.566   1.537
    6CHTO   C50 2372   7.401   3.522   1.449
    6CHTO   H92 2373   7.358   3.611   1.401
    6CHTO   C54 2374   7.464   3.447   1.328
    6CHTO   O36 2375   7.543   3.334   1.367
    6CHTO   H72 2376   7.487   3.267   1.402
    6CHTO   O27 2377   7.563   3.656   1.750
    6CHTO   C37 2378   7.649   3.770   1.742
    6CHTO   H79 2379   7.693   3.777   1.642
    6CHTO   C38 2380   7.572   3.903   1.766
    6CHTO   H80 2381   7.510   3.891   1.856
    6CHTO   O31 2382   7.485   3.924   1.654
    6CHTO   H68 2383   7.416   3.860   1.653
    6CHTO   C39 2384   7.669   4.026   1.787
    6CHTO   H81 2385   7.717   4.047   1.691
    6CHTO    N7 2386   7.597   4.151   1.829
    6CHTO   H73 2387   7.524   4.178   1.754
    6CHTO   H74 2388   7.668   4.232   1.842
    6CHTO   C40 2389   7.784   3.990   1.889
    6CHTO   H82 2390   7.740   3.979   1.988
    6CHTO   O26 2391   7.851   3.870   1.846
    6CHTO   C41 2392   7.764   3.753   1.845
    6CHTO   H83 2393   7.721   3.740   1.945
    6CHTO   C52 2394   7.850   3.627   1.816
    6CHTO   O35 2395   7.919   3.631   1.684
    6CHTO   H71 2396   7.970   3.554   1.673
    6CHTO   O28 2397   7.890   4.087   1.891
    6CHTO   C42 2398   7.953   4.136   2.015
    6CHTO   H84 2399   8.059   4.143   1.987
    6CHTO   C44 2400   7.948   4.045   2.142
    6CHTO   H86 2401   7.843   4.028   2.169
    6CHTO   O32 2402   8.008   3.919   2.108
    6CHTO   H69 2403   7.953   3.872   2.047
    6CHTO   C48 2404   8.019   4.110   2.268
    6CHTO   H90 2405   8.127   4.109   2.250
    6CHTO    N9 2406   7.997   4.028   2.393
    6CHTO   H77 2407   8.092   3.998   2.435
    6CHTO   H78 2408   7.938   4.082   2.466
    6CHTO   C51 2409   7.975   4.261   2.287
    6CHTO   H93 2410   7.870   4.261   2.318
    6CHTO   O30 2411   7.994   4.331   2.163
    6CHTO   C46 2412   7.907   4.280   2.053
    6CHTO   H88 2413   7.804   4.275   2.088
    6CHTO   C53 2414   7.915   4.380   1.935
    6CHTO   O72 2415   8.049   4.400   1.889
    6CHTO  H199 2416   8.049   4.462   1.818
    6CHTO   O22 2417   8.057   4.331   2.383
    6CHTO   C31 2418   8.009   4.452   2.453
    6CHTO   H59 2419   8.099   4.495   2.503
    6CHTO   C29 2420   7.954   4.563   2.360
    6CHTO   H57 2421   7.875   4.518   2.297
    6CHTO   O21 2422   8.060   4.602   2.271
    6CHTO   H37 2423   8.028   4.661   2.205
    6CHTO   C27 2424   7.893   4.685   2.440
    6CHTO   H55 2425   7.973   4.731   2.500
    6CHTO    N5 2426   7.834   4.788   2.351
    6CHTO   H43 2427   7.754   4.746   2.292
    6CHTO   H44 2428   7.910   4.830   2.287
    6CHTO   C25 2429   7.787   4.627   2.541
    6CHTO   H53 2430   7.709   4.573   2.485
    6CHTO   O17 2431   7.853   4.535   2.632
    6CHTO   C32 2432   7.908   4.418   2.567
    6CHTO   H60 2433   7.826   4.360   2.526
    6CHTO   C36 2434   7.976   4.332   2.677
    6CHTO   O25 2435   8.081   4.401   2.745
    6CHTO   H40 2436   8.119   4.345   2.810
    6CHTO   O15 2437   7.717   4.739   2.628
    6CHTO   C19 2438   7.603   4.763   2.714
    6CHTO   H47 2439   7.562   4.662   2.732
    6CHTO   C20 2440   7.643   4.826   2.852
    6CHTO   H48 2441   7.705   4.916   2.838
    6CHTO   O19 2442   7.722   4.727   2.919
    6CHTO   H35 2443   7.756   4.761   2.999
    6CHTO   C21 2444   7.517   4.867   2.939
    6CHTO   H49 2445   7.464   4.777   2.968
    6CHTO    N4 2446   7.555   4.938   3.065
    6CHTO   H41 2447   7.466   4.963   3.121
    6CHTO   H42 2448   7.617   4.874   3.125
    6CHTO   C22 2449   7.421   4.950   2.850
    6CHTO   H50 2450   7.473   5.041   2.818
    6CHTO   O14 2451   7.383   4.872   2.736
    6CHTO   C23 2452   7.489   4.844   2.644
    6CHTO   H51 2453   7.525   4.940   2.605
    6CHTO   C34 2454   7.423   4.766   2.529
    6CHTO   O23 2455   7.508   4.756   2.414
    6CHTO   H38 2456   7.464   4.706   2.348
    6CHTO   O16 2457   7.297   4.984   2.916
    6CHTO   C24 2458   7.223   5.111   2.850
    6CHTO   H52 2459   7.261   5.133   2.749
    6CHTO   C26 2460   7.243   5.235   2.940
    6CHTO   H54 2461   7.216   5.206   3.045
    6CHTO   O20 2462   7.383   5.269   2.940
    6CHTO   H36 2463   7.411   5.296   2.855
    6CHTO   C30 2464   7.153   5.355   2.897
    6CHTO   H58 2465   7.187   5.394   2.800
    6CHTO    N6 2466   7.161   5.469   2.993
    6CHTO   H45 2467   7.131   5.437   3.092
    6CHTO   H46 2468   7.263   5.505   2.998
    6CHTO   C33 2469   7.006   5.306   2.877
    6CHTO   H61 2470   6.967   5.270   2.974
    6CHTO   O18 2471   7.007   5.196   2.784
    6CHTO   C28 2472   7.072   5.079   2.834
    6CHTO   H56 2473   7.032   5.050   2.931
    6CHTO   C35 2474   7.051   4.963   2.734
    6CHTO   O24 2475   6.913   4.930   2.717
    6CHTO   H39 2476   6.869   4.999   2.672
    6CHTO    O9 2477   6.916   5.410   2.834
    6CHTO   C13 2478   6.761   5.384   2.882
    6CHTO   H26 2479   6.763   5.363   2.991
    6CHTO   C11 2480   6.700   5.263   2.801
    6CHTO   H24 2481   6.760   5.173   2.821
    6CHTO    O8 2482   6.708   5.291   2.659
    6CHTO    H3 2483   6.797   5.294   2.632
    6CHTO    C9 2484   6.556   5.238   2.854
    6CHTO   H22 2485   6.569   5.209   2.960
    6CHTO    N2 2486   6.494   5.118   2.794
    6CHTO   H10 2487   6.474   5.136   2.689
    6CHTO   H11 2488   6.558   5.032   2.806
    6CHTO    C7 2489   6.471   5.373   2.853
    6CHTO   H20 2490   6.453   5.391   2.961
    6CHTO    O4 2491   6.543   5.484   2.797
    6CHTO   C14 2492   6.668   5.513   2.864
    6CHTO   H27 2493   6.643   5.553   2.964
    6CHTO   C18 2494   6.741   5.626   2.787
    6CHTO   O13 2495   6.675   5.752   2.805
    6CHTO    H7 2496   6.720   5.818   2.757
    6CHTO    O2 2497   6.320   5.362   2.775
    6CHTO    C1 2498   6.206   5.409   2.850
    6CHTO   H14 2499   6.118   5.404   2.783
    6CHTO    C2 2500   6.218   5.558   2.905
    6CHTO   H15 2501   6.313   5.565   2.960
    6CHTO    O6 2502   6.222   5.647   2.792
    6CHTO    H1 2503   6.301   5.636   2.744
    6CHTO    C3 2504   6.096   5.594   3.004
    6CHTO   H16 2505   6.002   5.594   2.947
    6CHTO    N1 2506   6.112   5.730   3.067
    6CHTO    H8 2507   6.118   5.723   3.174
    6CHTO    H9 2508   6.029   5.793   3.039
    6CHTO    C4 2509   6.081   5.479   3.110
    6CHTO   H17 2510   6.171   5.475   3.171
    6CHTO    O1 2511   6.062   5.354   3.043
    6CHTO    C5 2512   6.176   5.310   2.967
    6CHTO   H18 2513   6.263   5.305   3.032
    6CHTO   C16 2514   6.143   5.168   2.916
    6CHTO   O11 2515   6.131   5.075   3.025
    6CHTO    H5 2516   6.111   4.990   2.992
    6CHTO    O3 2517   5.965   5.493   3.195
    6CHTO    C6 2518   5.971   5.411   3.316
    6CHTO   H19 2519   6.046   5.331   3.309
    6CHTO    C8 2520   6.008   5.498   3.440
    6CHTO   H21 2521   5.932   5.575   3.452
    6CHTO    O7 2522   6.135   5.559   3.412
    6CHTO    H2 2523   6.158   5.618   3.482
    6CHTO   C12 2524   6.010   5.406   3.569
    6CHTO   H25 2525   6.087   5.328   3.551
    6CHTO    N3 2526   6.053   5.481   3.691
    6CHTO   H12 2527   5.983   5.561   3.712
    6CHTO   H13 2528   6.059   5.414   3.776
    6CHTO   C15 2529   5.870   5.336   3.582
    6CHTO   H28 2530   5.792   5.409   3.603
    6CHTO   O10 2531   5.867   5.225   3.691
    6CHTO    H4 2532   5.779   5.194   3.703
    6CHTO    O5 2533   5.838   5.263   3.462
    6CHTO   C10 2534   5.834   5.341   3.341
    6CHTO   H23 2535   5.755   5.415   3.350
    6CHTO   C17 2536   5.799   5.247   3.225
    6CHTO   O12 2537   5.669   5.189   3.240
    6CHTO    H6 2538   5.603   5.255   3.230
    7CHTO  H203 2539   5.050   1.780   2.763
    7CHTO   O82 2540   5.109   1.720   2.806
    7CHTO  C123 2541   5.230   1.705   2.731
    7CHTO  H227 2542   5.204   1.689   2.625
    7CHTO   O77 2543   5.295   1.835   2.746
    7CHTO  C118 2544   5.418   1.847   2.672
    7CHTO  H222 2545   5.400   1.824   2.566
    7CHTO  C125 2546   5.467   1.996   2.683
    7CHTO   O84 2547   5.373   2.088   2.627
    7CHTO  H205 2548   5.405   2.175   2.636
    7CHTO  C114 2549   5.522   1.749   2.730
    7CHTO  H218 2550   5.538   1.774   2.835
    7CHTO  C116 2551   5.468   1.602   2.723
    7CHTO  H220 2552   5.467   1.570   2.617
    7CHTO   O79 2553   5.561   1.516   2.791
    7CHTO  H201 2554   5.535   1.426   2.780
    7CHTO  C120 2555   5.323   1.591   2.786
    7CHTO  H224 2556   5.335   1.603   2.896
    7CHTO   N21 2557   5.263   1.456   2.763
    7CHTO  H211 2558   5.298   1.415   2.670
    7CHTO  H212 2559   5.288   1.390   2.845
    7CHTO   O75 2560   5.642   1.775   2.654
    7CHTO  C112 2561   5.783   1.707   2.712
    7CHTO  H216 2562   5.784   1.600   2.687
    7CHTO   O73 2563   5.790   1.729   2.854
    7CHTO  C113 2564   5.904   1.666   2.914
    7CHTO  H217 2565   5.902   1.557   2.889
    7CHTO  C124 2566   5.889   1.675   3.067
    7CHTO   O83 2567   5.887   1.810   3.116
    7CHTO  H204 2568   5.971   1.850   3.104
    7CHTO  C109 2569   6.036   1.729   2.863
    7CHTO  H213 2570   6.038   1.833   2.899
    7CHTO  C110 2571   6.040   1.728   2.707
    7CHTO  H214 2572   6.062   1.626   2.674
    7CHTO   O78 2573   6.150   1.810   2.663
    7CHTO  H200 2574   6.162   1.802   2.571
    7CHTO  C111 2575   5.907   1.777   2.643
    7CHTO  H215 2576   5.897   1.885   2.662
    7CHTO   N19 2577   5.901   1.760   2.495
    7CHTO  H207 2578   5.993   1.716   2.458
    7CHTO  H208 2579   5.817   1.699   2.465
    7CHTO   O74 2580   6.151   1.657   2.920
    7CHTO  C115 2581   6.281   1.749   2.937
    7CHTO  H219 2582   6.309   1.797   2.843
    7CHTO   O76 2583   6.255   1.868   3.040
    7CHTO  C122 2584   6.238   1.826   3.175
    7CHTO  H226 2585   6.150   1.762   3.180
    7CHTO  C126 2586   6.206   1.952   3.263
    7CHTO   O85 2587   6.307   2.052   3.255
    7CHTO  H206 2588   6.283   2.125   3.310
    7CHTO  C121 2589   6.364   1.746   3.226
    7CHTO  H225 2590   6.453   1.812   3.218
    7CHTO   O81 2591   6.351   1.709   3.364
    7CHTO  H202 2592   6.277   1.653   3.376
    7CHTO  C119 2593   6.385   1.621   3.134
    7CHTO  H223 2594   6.477   1.575   3.169
    7CHTO  C117 2595   6.401   1.656   2.981
    7CHTO  H221 2596   6.396   1.571   2.913
    7CHTO   N20 2597   6.533   1.722   2.951
    7CHTO  H209 2598   6.542   1.739   2.845
    7CHTO  H210 2599   6.542   1.815   3.005
    7CHTO   O80 2600   6.283   1.509   3.161
    7CHTO  C103 2601   6.312   1.362   3.106
    7CHTO  H190 2602   6.301   1.360   2.997
    7CHTO  C101 2603   6.449   1.295   3.146
    7CHTO  H188 2604   6.464   1.307   3.253
    7CHTO   O68 2605   6.564   1.368   3.072
    7CHTO  H168 2606   6.647   1.336   3.101
    7CHTO   C99 2607   6.450   1.138   3.111
    7CHTO  H186 2608   6.445   1.126   3.001
    7CHTO   N17 2609   6.576   1.068   3.155
    7CHTO  H174 2610   6.583   1.068   3.263
    7CHTO  H175 2611   6.577   0.967   3.117
    7CHTO   C97 2612   6.322   1.070   3.168
    7CHTO  H184 2613   6.328   1.070   3.278
    7CHTO   O64 2614   6.206   1.140   3.120
    7CHTO  C104 2615   6.194   1.275   3.165
    7CHTO  H191 2616   6.196   1.282   3.274
    7CHTO  C108 2617   6.057   1.330   3.122
    7CHTO   O71 2618   5.949   1.253   3.177
    7CHTO  H171 2619   5.947   1.168   3.137
    7CHTO   O62 2620   6.305   0.935   3.118
    7CHTO   C91 2621   6.230   0.840   3.197
    7CHTO  H178 2622   6.228   0.748   3.138
    7CHTO   C92 2623   6.081   0.882   3.218
    7CHTO  H179 2624   6.078   0.980   3.268
    7CHTO   O66 2625   6.021   0.903   3.088
    7CHTO  H166 2626   6.020   0.823   3.039
    7CHTO   C93 2627   5.998   0.776   3.301
    7CHTO  H180 2628   5.980   0.689   3.236
    7CHTO   N16 2629   5.863   0.825   3.340
    7CHTO  H172 2630   5.872   0.915   3.400
    7CHTO  H173 2631   5.804   0.844   3.252
    7CHTO   C94 2632   6.078   0.728   3.428
    7CHTO  H181 2633   6.081   0.804   3.506
    7CHTO   O61 2634   6.214   0.695   3.396
    7CHTO   C95 2635   6.290   0.803   3.339
    7CHTO  H182 2636   6.285   0.889   3.405
    7CHTO  C106 2637   6.440   0.757   3.330
    7CHTO   O69 2638   6.496   0.741   3.461
    7CHTO  H169 2639   6.456   0.668   3.504
    7CHTO   O63 2640   6.015   0.592   3.484
    7CHTO   C96 2641   5.985   0.597   3.634
    7CHTO  H183 2642   5.921   0.684   3.651
    7CHTO   C98 2643   6.110   0.611   3.727
    7CHTO  H185 2644   6.172   0.697   3.696
    7CHTO   O67 2645   6.062   0.644   3.858
    7CHTO  H167 2646   6.134   0.663   3.916
    7CHTO  C102 2647   6.197   0.476   3.736
    7CHTO  H189 2648   6.250   0.481   3.832
    7CHTO   N18 2649   6.303   0.462   3.633
    7CHTO  H176 2650   6.259   0.464   3.534
    7CHTO  H177 2651   6.374   0.542   3.643
    7CHTO  C105 2652   6.103   0.351   3.740
    7CHTO  H192 2653   6.103   0.301   3.642
    7CHTO   O65 2654   5.966   0.384   3.771
    7CHTO  C100 2655   5.902   0.465   3.671
    7CHTO  H187 2656   5.892   0.404   3.580
    7CHTO  C107 2657   5.759   0.501   3.718
    7CHTO   O70 2658   5.679   0.384   3.736
    7CHTO  H170 2659   5.661   0.345   3.652
    7CHTO   O57 2660   6.166   0.256   3.850
    7CHTO   C85 2661   6.158   0.114   3.831
    7CHTO  H157 2662   6.161   0.097   3.721
    7CHTO   C83 2663   6.019   0.061   3.878
    7CHTO  H155 2664   5.942   0.109   3.817
    7CHTO   O56 2665   5.995   0.101   4.014
    7CHTO  H135 2666   5.908   0.077   4.040
    7CHTO   C81 2667   6.013   9.907   3.854
    7CHTO  H153 2668   6.033   9.889   3.748
    7CHTO   N14 2669   5.878   9.848   3.877
    7CHTO  H141 2670   5.811   9.920   3.918
    7CHTO  H142 2671   5.837   9.811   3.785
    7CHTO   C79 2672   6.126   9.835   3.937
    7CHTO  H151 2673   6.125   9.730   3.909
    7CHTO   O52 2674   6.258   9.887   3.897
    7CHTO   C86 2675   6.271   0.032   3.906
    7CHTO  H158 2676   6.270   0.054   4.015
    7CHTO   C90 2677   6.412   0.075   3.856
    7CHTO   O60 2678   6.433   0.038   3.720
    7CHTO  H138 2679   6.519   0.065   3.693
    7CHTO   O50 2680   6.111   9.845   0.039
    7CHTO   C73 2681   6.147   9.758   0.148
    7CHTO  H145 2682   6.240   9.704   0.125
    7CHTO   C74 2683   6.034   9.653   0.172
    7CHTO  H146 2684   6.022   9.596   0.079
    7CHTO   O54 2685   6.080   9.560   0.272
    7CHTO  H133 2686   6.016   9.492   0.285
    7CHTO   C75 2687   5.901   9.729   0.212
    7CHTO  H147 2688   5.871   9.792   0.127
    7CHTO   N13 2689   5.785   9.640   0.236
    7CHTO  H139 2690   5.698   9.698   0.261
    7CHTO  H140 2691   5.806   9.574   0.319
    7CHTO   C76 2692   5.930   9.827   0.335
    7CHTO  H148 2693   5.944   9.767   0.425
    7CHTO   O49 2694   6.047   9.912   0.313
    7CHTO   C77 2695   6.167   9.842   0.278
    7CHTO  H149 2696   6.197   9.775   0.359
    7CHTO   C88 2697   6.280   9.945   0.264
    7CHTO   O58 2698   6.412   9.881   0.238
    7CHTO  H136 2699   6.411   9.841   0.153
    7CHTO   O51 2700   5.811   9.931   0.349
    7CHTO   C78 2701   5.787   9.978   0.495
    7CHTO  H150 2702   5.870   9.946   0.562
    7CHTO   C80 2703   5.655   9.917   0.547
    7CHTO  H152 2704   5.574   9.940   0.473
    7CHTO   O55 2705   5.672   9.774   0.550
    7CHTO  H134 2706   5.591   9.732   0.573
    7CHTO   C84 2707   5.616   9.976   0.688
    7CHTO  H156 2708   5.693   9.945   0.759
    7CHTO   N15 2709   5.485   9.923   0.739
    7CHTO  H143 2710   5.463   9.965   0.836
    7CHTO  H144 2711   5.489   9.817   0.748
    7CHTO   C87 2712   5.616   0.130   0.680
    7CHTO  H159 2713   5.539   0.164   0.610
    7CHTO   O53 2714   5.755   0.176   0.631
    7CHTO   C82 2715   5.782   0.131   0.498
    7CHTO  H154 2716   5.707   0.169   0.429
    7CHTO   C89 2717   5.918   0.191   0.453
    7CHTO   O59 2718   5.914   0.334   0.452
    7CHTO  H137 2719   5.997   0.368   0.424
    7CHTO   O45 2720   5.593   0.200   0.824
    7CHTO   C67 2721   5.579   0.343   0.815
    7CHTO  H124 2722   5.645   0.380   0.736
    7CHTO   C65 2723   5.432   0.384   0.781
    7CHTO  H122 2724   5.368   0.301   0.814
    7CHTO   O44 2725   5.424   0.395   0.638
    7CHTO  H102 2726   5.469   0.472   0.609
    7CHTO   C63 2727   5.381   0.508   0.865
    7CHTO  H120 2728   5.361   0.475   0.967
    7CHTO   N11 2729   5.248   0.565   0.826
    7CHTO  H108 2730   5.254   0.671   0.813
    7CHTO  H109 2731   5.213   0.520   0.736
    7CHTO   C61 2732   5.498   0.613   0.876
    7CHTO  H118 2733   5.462   0.695   0.940
    7CHTO   O40 2734   5.618   0.559   0.939
    7CHTO   C68 2735   5.631   0.413   0.947
    7CHTO  H125 2736   5.572   0.376   1.034
    7CHTO   C72 2737   5.779   0.377   0.974
    7CHTO   O48 2738   5.823   0.416   1.104
    7CHTO  H105 2739   5.825   0.510   1.110
    7CHTO   O38 2740   5.536   0.663   0.746
    7CHTO   C55 2741   5.594   0.795   0.740
    7CHTO  H112 2742   5.647   0.817   0.834
    7CHTO   C56 2743   5.480   0.901   0.710
    7CHTO  H113 2744   5.418   0.859   0.630
    7CHTO   O42 2745   5.394   0.912   0.825
    7CHTO  H100 2746   5.322   0.968   0.806
    7CHTO   C57 2747   5.538   1.042   0.667
    7CHTO  H114 2748   5.580   1.087   0.756
    7CHTO   N10 2749   5.434   1.134   0.615
    7CHTO  H106 2750   5.339   1.115   0.663
    7CHTO  H107 2751   5.462   1.236   0.633
    7CHTO   C58 2752   5.652   1.023   0.563
    7CHTO  H115 2753   5.609   0.985   0.467
    7CHTO   O37 2754   5.752   0.932   0.612
    7CHTO   C59 2755   5.702   0.798   0.628
    7CHTO  H116 2756   5.660   0.763   0.534
    7CHTO   C70 2757   5.820   0.705   0.662
    7CHTO   O46 2758   5.891   0.741   0.781
    7CHTO  H103 2759   5.936   0.822   0.768
    7CHTO   O39 2760   5.727   1.164   0.537
    7CHTO   C60 2761   5.827   1.164   0.435
    7CHTO  H117 2762   5.885   1.071   0.441
    7CHTO   C62 2763   5.767   1.174   0.292
    7CHTO  H119 2764   5.701   1.085   0.279
    7CHTO   O43 2765   5.686   1.293   0.280
    7CHTO  H101 2766   5.739   1.370   0.291
    7CHTO   C66 2767   5.887   1.167   0.184
    7CHTO  H123 2768   5.943   1.075   0.201
    7CHTO   N12 2769   5.836   1.159   0.045
    7CHTO  H110 2770   5.776   1.070   0.033
    7CHTO  H111 2771   5.779   1.247   0.021
    7CHTO   C69 2772   5.985   1.285   0.205
    7CHTO  H126 2773   5.933   1.382   0.186
    7CHTO   O41 2774   6.038   1.284   0.354
    7CHTO   C64 2775   5.926   1.280   0.460
    7CHTO  H121 2776   5.870   1.376   0.458
    7CHTO   C71 2777   5.989   1.268   0.601
    7CHTO   O47 2778   6.075   1.154   0.610
    7CHTO  H104 2779   6.113   1.149   0.695
    7CHTO   O34 2780   6.109   1.275   0.109
    7CHTO   C49 2781   6.204   1.379   0.047
    7CHTO   H91 2782   6.148   1.430   4.008
    7CHTO   C47 2783   6.325   1.306   4.026
    7CHTO   H89 2784   6.378   1.384   3.967
    7CHTO   O33 2785   6.282   1.203   3.935
    7CHTO   H70 2786   6.237   1.241   3.862
    7CHTO   C45 2787   6.421   1.242   0.100
    7CHTO   H87 2788   6.398   1.135   0.109
    7CHTO    N8 2789   6.562   1.256   0.055
    7CHTO   H75 2790   6.621   1.307   0.130
    7CHTO   H76 2791   6.604   1.158   0.036
    7CHTO   C43 2792   6.386   1.304   0.246
    7CHTO   H85 2793   6.296   1.252   0.278
    7CHTO   O29 2794   6.366   1.445   0.236
    7CHTO   C50 2795   6.258   1.485   0.149
    7CHTO   H92 2796   6.173   1.516   0.211
    7CHTO   C54 2797   6.300   1.615   0.076
    7CHTO   O36 2798   6.311   1.725   0.166
    7CHTO   H72 2799   6.384   1.712   0.224
    7CHTO   O27 2800   6.483   1.271   0.347
    7CHTO   C37 2801   6.528   1.165   0.433
    7CHTO   H79 2802   6.483   1.176   0.533
    7CHTO   C38 2803   6.484   1.025   0.378
    7CHTO   H80 2804   6.509   1.020   0.271
    7CHTO   O31 2805   6.341   1.017   0.393
    7CHTO   H68 2806   6.299   1.076   0.334
    7CHTO   C39 2807   6.556   0.906   0.452
    7CHTO   H81 2808   6.520   0.904   0.555
    7CHTO    N7 2809   6.525   0.772   0.391
    7CHTO   H73 2810   6.480   0.706   0.464
    7CHTO   H74 2811   6.613   0.726   0.349
    7CHTO   C40 2812   6.711   0.934   0.458
    7CHTO   H82 2813   6.750   0.935   0.356
    7CHTO   O26 2814   6.733   1.060   0.524
    7CHTO   C41 2815   6.683   1.173   0.447
    7CHTO   H83 2816   6.728   1.174   0.347
    7CHTO   C52 2817   6.725   1.303   0.519
    7CHTO   O35 2818   6.871   1.316   0.530
    7CHTO   H71 2819   6.893   1.396   0.575
    7CHTO   O28 2820   6.786   0.836   0.533
    7CHTO   C42 2821   6.927   0.810   0.501
    7CHTO   H84 2822   6.961   0.745   0.581
    7CHTO   C44 2823   7.022   0.935   0.505
    7CHTO   H86 2824   6.982   1.011   0.436
    7CHTO   O32 2825   7.014   0.988   0.639
    7CHTO   H69 2826   7.063   1.068   0.645
    7CHTO   C48 2827   7.170   0.901   0.460
    7CHTO   H90 2828   7.213   0.834   0.535
    7CHTO    N9 2829   7.258   1.023   0.459
    7CHTO   H77 2830   7.218   1.097   0.391
    7CHTO   H78 2831   7.265   1.064   0.559
    7CHTO   C51 2832   7.167   0.827   0.321
    7CHTO   H93 2833   7.121   0.894   0.248
    7CHTO   O30 2834   7.092   0.706   0.337
    7CHTO   C46 2835   6.945   0.731   0.367
    7CHTO   H88 2836   6.902   0.788   0.286
    7CHTO   C53 2837   6.877   0.593   0.375
    7CHTO   O72 2838   6.881   0.526   0.249
    7CHTO  H199 2839   6.969   0.501   0.229
    7CHTO   O22 2840   7.298   0.786   0.277
    7CHTO   C31 2841   7.332   0.761   0.135
    7CHTO   H59 2842   7.440   0.736   0.134
    7CHTO   C29 2843   7.258   0.642   0.070
    7CHTO   H57 2844   7.150   0.666   0.067
    7CHTO   O21 2845   7.274   0.526   0.154
    7CHTO   H37 2846   7.229   0.539   0.236
    7CHTO   C27 2847   7.310   0.616   3.963
    7CHTO   H55 2848   7.416   0.586   3.969
    7CHTO    N5 2849   7.234   0.509   3.893
    7CHTO   H43 2850   7.238   0.418   3.950
    7CHTO   H44 2851   7.277   0.492   3.795
    7CHTO   C25 2852   7.305   0.750   3.881
    7CHTO   H53 2853   7.201   0.777   3.861
    7CHTO   O17 2854   7.368   0.860   3.953
    7CHTO   C32 2855   7.316   0.887   0.044
    7CHTO   H60 2856   7.210   0.912   0.037
    7CHTO   C36 2857   7.393   1.009   0.099
    7CHTO   O25 2858   7.364   1.127   0.023
    7CHTO   H40 2859   7.402   1.120   3.978
    7CHTO   O15 2860   7.381   0.735   3.743
    7CHTO   C19 2861   7.367   0.811   3.619
    7CHTO   H47 2862   7.448   0.773   3.555
    7CHTO   C20 2863   7.231   0.787   3.545
    7CHTO   H48 2864   7.145   0.815   3.608
    7CHTO   O19 2865   7.224   0.645   3.520
    7CHTO   H35 2866   7.141   0.624   3.482
    7CHTO   C21 2867   7.224   0.871   3.411
    7CHTO   H49 2868   7.302   0.835   3.344
    7CHTO    N4 2869   7.096   0.853   3.338
    7CHTO   H41 2870   7.097   0.910   3.246
    7CHTO   H42 2871   7.014   0.888   3.399
    7CHTO   C22 2872   7.255   1.019   3.444
    7CHTO   H50 2873   7.177   1.055   3.511
    7CHTO   O14 2874   7.383   1.030   3.509
    7CHTO   C23 2875   7.392   0.964   3.636
    7CHTO   H51 2876   7.318   1.010   3.703
    7CHTO   C34 2877   7.532   0.991   3.693
    7CHTO   O23 2878   7.551   1.130   3.722
    7CHTO   H38 2879   7.555   1.179   3.642
    7CHTO   O16 2880   7.268   1.105   3.328
    7CHTO   C24 2881   7.196   1.252   3.352
    7CHTO   H52 2882   7.151   1.259   3.451
    7CHTO   C26 2883   7.088   1.275   3.245
    7CHTO   H54 2884   7.136   1.277   3.145
    7CHTO   O20 2885   6.995   1.165   3.247
    7CHTO   H36 2886   6.951   1.160   3.330
    7CHTO   C30 2887   7.016   1.411   3.269
    7CHTO   H58 2888   6.952   1.403   3.359
    7CHTO    N6 2889   6.921   1.445   3.159
    7CHTO   H45 2890   6.975   1.455   3.066
    7CHTO   H46 2891   6.870   1.537   3.181
    7CHTO   C33 2892   7.115   1.529   3.298
    7CHTO   H61 2893   7.154   1.570   3.204
    7CHTO   O18 2894   7.227   1.488   3.380
    7CHTO   C28 2895   7.297   1.369   3.341
    7CHTO   H56 2896   7.331   1.376   3.237
    7CHTO   C35 2897   7.419   1.349   3.433
    7CHTO   O24 2898   7.515   1.454   3.417
    7CHTO   H39 2899   7.588   1.439   3.475
    7CHTO    O9 2900   7.041   1.636   3.360
    7CHTO   C13 2901   7.108   1.781   3.367
    7CHTO   H26 2902   7.151   1.804   3.267
    7CHTO   C11 2903   7.219   1.787   3.480
    7CHTO   H24 2904   7.303   1.723   3.448
    7CHTO    O8 2905   7.167   1.732   3.603
    7CHTO    H3 2906   7.147   1.641   3.593
    7CHTO    C9 2907   7.269   1.933   3.492
    7CHTO   H22 2908   7.301   1.961   3.390
    7CHTO    N2 2909   7.390   1.949   3.576
    7CHTO   H10 2910   7.367   1.924   3.679
    7CHTO   H11 2911   7.470   1.887   3.539
    7CHTO    C7 2912   7.150   2.026   3.534
    7CHTO   H20 2913   7.191   2.129   3.523
    7CHTO    O4 2914   7.036   2.016   3.446
    7CHTO   C14 2915   6.993   1.889   3.391
    7CHTO   H27 2916   6.950   1.913   3.292
    7CHTO   C18 2917   6.878   1.833   3.478
    7CHTO   O13 2918   6.759   1.911   3.463
    7CHTO    H7 2919   6.690   1.874   3.515
    7CHTO    O2 2920   7.100   2.002   3.693
    7CHTO    C1 2921   7.050   2.120   3.758
    7CHTO   H14 2922   6.989   2.176   3.685
    7CHTO    C2 2923   7.161   2.217   3.817
    7CHTO   H15 2924   7.222   2.156   3.885
    7CHTO    O6 2925   7.243   2.267   3.711
    7CHTO    H1 2926   7.314   2.318   3.746
    7CHTO    C3 2927   7.092   2.338   3.899
    7CHTO   H16 2928   7.035   2.400   3.828
    7CHTO    N1 2929   7.193   2.429   3.964
    7CHTO    H8 2930   7.181   2.430   0.031
    7CHTO    H9 2931   7.294   2.400   3.939
    7CHTO    C4 2932   6.986   2.282   4.001
    7CHTO   H17 2933   7.039   2.230   0.041
    7CHTO    O1 2934   6.894   2.193   3.936
    7CHTO    C5 2935   6.954   2.078   3.874
    7CHTO   H18 2936   7.014   2.025   3.948
    7CHTO   C16 2937   6.840   1.985   3.828
    7CHTO   O11 2938   6.751   2.050   3.737
    7CHTO    H5 2939   6.684   1.990   3.711
    7CHTO    O3 2940   6.903   2.387   0.014
    7CHTO    C6 2941   6.857   2.369   0.152
    7CHTO   H19 2942   6.867   2.266   0.187
    7CHTO    C8 2943   6.939   2.461   0.248
    7CHTO   H21 2944   6.940   2.562   0.206
    7CHTO    O7 2945   7.074   2.410   0.252
    7CHTO    H2 2946   7.116   2.423   0.169
    7CHTO   C12 2947   6.875   2.467   0.392
    7CHTO   H25 2948   6.888   2.365   0.437
    7CHTO    N3 2949   6.949   2.563   0.481
    7CHTO   H12 2950   6.903   2.565   0.579
    7CHTO   H13 2951   7.052   2.534   0.489
    7CHTO   C15 2952   6.722   2.498   0.380
    7CHTO   H28 2953   6.705   2.598   0.342
    7CHTO   O10 2954   6.645   2.482   0.516
    7CHTO    H4 2955   6.660   2.397   0.552
    7CHTO    O5 2956   6.658   2.401   0.296
    7CHTO   C10 2957   6.705   2.404   0.160
    7CHTO   H23 2958   6.689   2.504   0.119
    7CHTO   C17 2959   6.620   2.307   0.077
    7CHTO   O12 2960   6.484   2.352   0.066
    7CHTO    H6 2961   6.480   2.429   0.013
    8CHTO  H203 2962   7.681   6.465   1.431
    8CHTO   O82 2963   7.648   6.409   1.499
    8CHTO  C123 2964   7.520   6.455   1.546
    8CHTO  H227 2965   7.484   6.384   1.623
    8CHTO   O77 2966   7.550   6.584   1.608
    8CHTO  C118 2967   7.437   6.646   1.672
    8CHTO  H222 2968   7.396   6.579   1.749
    8CHTO  C125 2969   7.488   6.778   1.742
    8CHTO   O84 2970   7.584   6.750   1.844
    8CHTO  H205 2971   7.613   6.831   1.882
    8CHTO  C114 2972   7.328   6.677   1.569
    8CHTO  H218 2973   7.367   6.750   1.497
    8CHTO  C116 2974   7.287   6.550   1.488
    8CHTO  H220 2975   7.229   6.482   1.555
    8CHTO   O79 2976   7.196   6.589   1.383
    8CHTO  H201 2977   7.239   6.645   1.322
    8CHTO  C120 2978   7.414   6.474   1.431
    8CHTO  H224 2979   7.456   6.539   1.351
    8CHTO   N21 2980   7.378   6.345   1.366
    8CHTO  H211 2981   7.377   6.265   1.438
    8CHTO  H212 2982   7.282   6.353   1.316
    8CHTO   O75 2983   7.220   6.734   1.646
    8CHTO  C112 2984   7.144   6.860   1.573
    8CHTO  H216 2985   7.105   6.827   1.476
    8CHTO   O73 2986   7.240   6.965   1.559
    8CHTO  C113 2987   7.192   7.080   1.488
    8CHTO  H217 2988   7.161   7.050   1.386
    8CHTO  C124 2989   7.313   7.174   1.474
    8CHTO   O83 2990   7.285   7.296   1.405
    8CHTO  H204 2991   7.363   7.348   1.400
    8CHTO  C109 2992   7.074   7.146   1.565
    8CHTO  H213 2993   7.116   7.191   1.656
    8CHTO  C110 2994   6.964   7.041   1.602
    8CHTO  H214 2995   6.909   7.016   1.511
    8CHTO   O78 2996   6.870   7.103   1.691
    8CHTO  H200 2997   6.911   7.128   1.771
    8CHTO  C111 2998   7.026   6.911   1.664
    8CHTO  H215 2999   7.067   6.936   1.762
    8CHTO   N19 3000   6.926   6.804   1.685
    8CHTO  H207 3001   6.882   6.774   1.591
    8CHTO  H208 3002   6.973   6.718   1.733
    8CHTO   O74 3003   7.015   7.251   1.482
    8CHTO  C115 3004   6.976   7.396   1.557
    8CHTO  H219 3005   6.870   7.401   1.582
    8CHTO   O76 3006   7.053   7.415   1.694
    8CHTO  C122 3007   7.031   7.539   1.761
    8CHTO  H226 3008   7.102   7.545   1.843
    8CHTO  C126 3009   6.889   7.542   1.829
    8CHTO   O85 3010   6.874   7.438   1.927
    8CHTO  H206 3011   6.871   7.354   1.884
    8CHTO  C121 3012   7.055   7.665   1.668
    8CHTO  H225 3013   7.015   7.754   1.721
    8CHTO   O81 3014   7.196   7.682   1.651
    8CHTO  H202 3015   7.237   7.703   1.733
    8CHTO  C119 3016   6.985   7.653   1.530
    8CHTO  H223 3017   6.878   7.663   1.549
    8CHTO  C117 3018   7.009   7.514   1.459
    8CHTO  H221 3019   7.111   7.495   1.426
    8CHTO   N20 3020   6.925   7.501   1.334
    8CHTO  H209 3021   6.860   7.586   1.321
    8CHTO  H210 3022   6.989   7.490   1.247
    8CHTO   O80 3023   7.012   7.778   1.437
    8CHTO  C103 3024   6.958   7.914   1.475
    8CHTO  H190 3025   6.883   7.906   1.553
    8CHTO  C101 3026   7.068   8.020   1.519
    8CHTO  H188 3027   7.152   8.013   1.450
    8CHTO   O68 3028   7.120   7.983   1.660
    8CHTO  H168 3029   7.051   7.991   1.723
    8CHTO   C99 3030   7.011   8.170   1.514
    8CHTO  H186 3031   6.932   8.181   1.591
    8CHTO   N17 3032   7.115   8.274   1.543
    8CHTO  H174 3033   7.159   8.256   1.639
    8CHTO  H175 3034   7.190   8.274   1.465
    8CHTO   C97 3035   6.941   8.194   1.377
    8CHTO  H184 3036   7.016   8.186   1.297
    8CHTO   O64 3037   6.835   8.097   1.362
    8CHTO  C104 3038   6.885   7.964   1.344
    8CHTO  H191 3039   6.955   7.961   1.261
    8CHTO  C108 3040   6.769   7.872   1.304
    8CHTO   O71 3041   6.667   7.865   1.405
    8CHTO  H171 3042   6.700   7.819   1.480
    8CHTO   O62 3043   6.867   8.318   1.368
    8CHTO   C91 3044   6.920   8.419   1.280
    8CHTO  H178 3045   7.028   8.408   1.275
    8CHTO   C92 3046   6.892   8.559   1.344
    8CHTO  H179 3047   6.784   8.569   1.362
    8CHTO   O66 3048   6.953   8.562   1.475
    8CHTO  H166 3049   7.046   8.553   1.469
    8CHTO   C93 3050   6.945   8.679   1.255
    8CHTO  H180 3051   7.055   8.676   1.259
    8CHTO   N16 3052   6.906   8.812   1.307
    8CHTO  H172 3053   6.947   8.827   1.405
    8CHTO  H173 3054   6.798   8.821   1.309
    8CHTO   C94 3055   6.899   8.661   1.106
    8CHTO  H181 3056   6.792   8.675   1.094
    8CHTO   O61 3057   6.929   8.528   1.060
    8CHTO   C95 3058   6.862   8.423   1.132
    8CHTO  H182 3059   6.755   8.444   1.133
    8CHTO  C106 3060   6.885   8.292   1.048
    8CHTO   O69 3061   6.796   8.188   1.091
    8CHTO  H169 3062   6.812   8.111   1.039
    8CHTO   O63 3063   6.980   8.761   1.010
    8CHTO   C96 3064   6.922   8.764   0.866
    8CHTO  H183 3065   6.830   8.704   0.864
    8CHTO   C98 3066   7.017   8.707   0.757
    8CHTO  H185 3067   7.115   8.757   0.764
    8CHTO   O67 3068   7.042   8.569   0.787
    8CHTO  H167 3069   7.093   8.561   0.865
    8CHTO  C102 3070   6.957   8.723   0.608
    8CHTO  H189 3071   6.873   8.652   0.603
    8CHTO   N18 3072   7.051   8.684   0.500
    8CHTO  H176 3073   7.007   8.607   0.438
    8CHTO  H177 3074   7.078   8.769   0.438
    8CHTO  C105 3075   6.898   8.866   0.590
    8CHTO  H192 3076   6.980   8.937   0.575
    8CHTO   O65 3077   6.818   8.912   0.700
    8CHTO  C100 3078   6.884   8.911   0.827
    8CHTO  H187 3079   6.976   8.970   0.820
    8CHTO  C107 3080   6.793   8.980   0.933
    8CHTO   O70 3081   6.671   8.909   0.954
    8CHTO  H170 3082   6.619   8.954   1.018
    8CHTO   O57 3083   6.805   8.860   0.460
    8CHTO   C85 3084   6.832   8.945   0.348
    8CHTO  H157 3085   6.940   8.931   0.324
    8CHTO   C83 3086   6.817   9.096   0.388
    8CHTO  H155 3087   6.893   9.120   0.462
    8CHTO   O56 3088   6.690   9.117   0.453
    8CHTO  H135 3089   6.619   9.103   0.394
    8CHTO   C81 3090   6.840   9.185   0.262
    8CHTO  H153 3091   6.938   9.160   0.222
    8CHTO   N14 3092   6.851   9.330   0.293
    8CHTO  H141 3093   6.783   9.387   0.233
    8CHTO  H142 3094   6.830   9.350   0.396
    8CHTO   C79 3095   6.732   9.150   0.153
    8CHTO  H151 3096   6.755   9.210   0.065
    8CHTO   O52 3097   6.745   9.010   0.114
    8CHTO   C86 3098   6.739   8.914   0.224
    8CHTO  H158 3099   6.633   8.915   0.255
    8CHTO   C90 3100   6.765   8.770   0.171
    8CHTO   O60 3101   6.893   8.759   0.108
    8CHTO  H138 3102   6.894   8.808   0.028
    8CHTO   O50 3103   6.597   9.178   0.193
    8CHTO   C73 3104   6.464   9.222   0.158
    8CHTO  H145 3105   6.445   9.204   0.052
    8CHTO   C74 3106   6.448   9.374   0.186
    8CHTO  H146 3107   6.524   9.427   0.126
    8CHTO   O54 3108   6.320   9.416   0.136
    8CHTO  H133 3109   6.309   9.509   0.147
    8CHTO   C75 3110   6.468   9.401   0.341
    8CHTO  H147 3111   6.571   9.374   0.368
    8CHTO   N13 3112   6.453   9.543   0.381
    8CHTO  H139 3113   6.431   9.606   0.296
    8CHTO  H140 3114   6.544   9.579   0.427
    8CHTO   C76 3115   6.372   9.306   0.427
    8CHTO  H148 3116   6.269   9.342   0.418
    8CHTO   O49 3117   6.380   9.166   0.383
    8CHTO   C77 3118   6.360   9.143   0.243
    8CHTO  H149 3119   6.260   9.174   0.213
    8CHTO   C88 3120   6.368   8.992   0.215
    8CHTO   O58 3121   6.264   8.919   0.286
    8CHTO  H136 3122   6.272   8.828   0.267
    8CHTO   O51 3123   6.424   9.301   0.579
    8CHTO   C78 3124   6.317   9.242   0.680
    8CHTO  H150 3125   6.227   9.205   0.626
    8CHTO   C80 3126   6.275   9.352   0.780
    8CHTO  H152 3127   6.367   9.395   0.825
    8CHTO   O55 3128   6.209   9.455   0.704
    8CHTO  H134 3129   6.270   9.501   0.650
    8CHTO   C84 3130   6.181   9.296   0.894
    8CHTO  H156 3131   6.086   9.271   0.849
    8CHTO   N15 3132   6.153   9.400   1.000
    8CHTO  H143 3133   6.190   9.369   1.096
    8CHTO  H144 3134   6.048   9.417   1.008
    8CHTO   C87 3135   6.240   9.166   0.955
    8CHTO  H159 3136   6.327   9.188   1.018
    8CHTO   O53 3137   6.279   9.069   0.843
    8CHTO   C82 3138   6.378   9.122   0.755
    8CHTO  H154 3139   6.467   9.151   0.810
    8CHTO   C89 3140   6.420   9.009   0.657
    8CHTO   O59 3141   6.481   8.900   0.726
    8CHTO  H137 3142   6.504   8.833   0.665
    8CHTO   O45 3143   6.129   9.091   1.044
    8CHTO   C67 3144   6.176   8.972   1.109
    8CHTO  H124 3145   6.273   8.944   1.067
    8CHTO   C65 3146   6.194   8.997   1.264
    8CHTO  H122 3147   6.134   9.085   1.287
    8CHTO   O44 3148   6.333   9.027   1.285
    8CHTO  H102 3149   6.356   9.108   1.244
    8CHTO   C63 3150   6.131   8.882   1.351
    8CHTO  H120 3151   6.022   8.890   1.346
    8CHTO   N11 3152   6.153   8.892   1.499
    8CHTO  H108 3153   6.124   8.989   1.534
    8CHTO  H109 3154   6.257   8.876   1.521
    8CHTO   C61 3155   6.167   8.742   1.289
    8CHTO  H118 3156   6.112   8.667   1.347
    8CHTO   O40 3157   6.123   8.729   1.150
    8CHTO   C68 3158   6.080   8.850   1.079
    8CHTO  H125 3159   5.976   8.876   1.111
    8CHTO   C72 3160   6.075   8.819   0.927
    8CHTO   O48 3161   5.981   8.717   0.893
    8CHTO  H105 3162   6.010   8.634   0.927
    8CHTO   O38 3163   6.309   8.715   1.292
    8CHTO   C55 3164   6.344   8.574   1.288
    8CHTO  H112 3165   6.257   8.515   1.255
    8CHTO   C56 3166   6.397   8.527   1.430
    8CHTO  H113 3167   6.484   8.590   1.454
    8CHTO   O42 3168   6.298   8.554   1.530
    8CHTO  H100 3169   6.331   8.533   1.615
    8CHTO   C57 3170   6.437   8.374   1.426
    8CHTO  H114 3171   6.343   8.319   1.416
    8CHTO   N10 3172   6.504   8.326   1.549
    8CHTO  H106 3173   6.483   8.221   1.563
    8CHTO  H107 3174   6.468   8.381   1.635
    8CHTO   C58 3175   6.525   8.343   1.302
    8CHTO  H115 3176   6.628   8.382   1.319
    8CHTO   O37 3177   6.475   8.403   1.181
    8CHTO   C59 3178   6.456   8.545   1.184
    8CHTO  H116 3179   6.549   8.595   1.212
    8CHTO   C70 3180   6.417   8.588   1.042
    8CHTO   O46 3181   6.420   8.730   1.024
    8CHTO  H103 3182   6.396   8.751   0.936
    8CHTO   O39 3183   6.532   8.175   1.275
    8CHTO   C60 3184   6.417   8.121   1.207
    8CHTO  H117 3185   6.333   8.189   1.219
    8CHTO   C62 3186   6.445   8.106   1.054
    8CHTO  H119 3187   6.475   8.207   1.018
    8CHTO   O43 3188   6.554   8.015   1.031
    8CHTO  H101 3189   6.634   8.052   1.063
    8CHTO   C66 3190   6.309   8.063   0.982
    8CHTO  H123 3191   6.230   8.133   1.010
    8CHTO   N12 3192   6.317   8.068   0.833
    8CHTO  H110 3193   6.415   8.101   0.801
    8CHTO  H111 3194   6.239   8.131   0.793
    8CHTO   C69 3195   6.265   7.923   1.034
    8CHTO  H126 3196   6.337   7.845   1.000
    8CHTO   O41 3197   6.257   7.923   1.192
    8CHTO   C64 3198   6.375   7.985   1.268
    8CHTO  H121 3199   6.461   7.915   1.265
    8CHTO   C71 3200   6.332   8.004   1.416
    8CHTO   O47 3201   6.290   7.881   1.475
    8CHTO  H104 3202   6.264   7.896   1.564
    8CHTO   O34 3203   6.123   7.885   0.979
    8CHTO   C49 3204   5.985   7.899   1.052
    8CHTO   H91 3205   5.981   7.821   1.128
    8CHTO   C47 3206   5.873   7.878   0.949
    8CHTO   H89 3207   5.776   7.875   1.004
    8CHTO   O33 3208   5.893   7.749   0.887
    8CHTO   H70 3209   5.878   7.680   0.949
    8CHTO   C45 3210   5.874   7.999   0.843
    8CHTO   H87 3211   5.972   8.000   0.794
    8CHTO    N8 3212   5.770   7.982   0.738
    8CHTO   H75 3213   5.817   7.961   0.642
    8CHTO   H76 3214   5.701   7.904   0.763
    8CHTO   C43 3215   5.865   8.143   0.917
    8CHTO   H85 3216   5.890   8.217   0.841
    8CHTO   O29 3217   5.956   8.149   1.029
    8CHTO   C50 3218   5.966   8.038   1.120
    8CHTO   H92 3219   6.054   8.057   1.183
    8CHTO   C54 3220   5.849   8.038   1.224
    8CHTO   O36 3221   5.866   7.938   1.325
    8CHTO   H72 3222   5.859   7.852   1.288
    8CHTO   O27 3223   5.733   8.179   0.963
    8CHTO   C37 3224   5.664   8.304   0.985
    8CHTO   H79 3225   5.571   8.285   1.042
    8CHTO   C38 3226   5.749   8.404   1.070
    8CHTO   H80 3227   5.848   8.416   1.023
    8CHTO   O31 3228   5.767   8.346   1.200
    8CHTO   H68 3229   5.826   8.398   1.251
    8CHTO   C39 3230   5.679   8.546   1.082
    8CHTO   H81 3231   5.588   8.533   1.140
    8CHTO    N7 3232   5.763   8.648   1.154
    8CHTO   H73 3233   5.710   8.742   1.160
    8CHTO   H74 3234   5.786   8.612   1.254
    8CHTO   C40 3235   5.636   8.598   0.940
    8CHTO   H82 3236   5.723   8.627   0.881
    8CHTO   O26 3237   5.557   8.497   0.874
    8CHTO   C41 3238   5.627   8.371   0.850
    8CHTO   H83 3239   5.719   8.390   0.792
    8CHTO   C52 3240   5.534   8.282   0.764
    8CHTO   O35 3241   5.508   8.340   0.629
    8CHTO   H71 3242   5.587   8.340   0.579
    8CHTO   O28 3243   5.547   8.711   0.951
    8CHTO   C42 3244   5.510   8.798   0.839
    8CHTO   H84 3245   5.433   8.862   0.882
    8CHTO   C44 3246   5.444   8.729   0.715
    8CHTO   H86 3247   5.516   8.658   0.672
    8CHTO   O32 3248   5.330   8.654   0.764
    8CHTO   H69 3249   5.359   8.581   0.814
    8CHTO   C48 3250   5.402   8.832   0.603
    8CHTO   H90 3251   5.321   8.893   0.642
    8CHTO    N9 3252   5.348   8.764   0.479
    8CHTO   H77 3253   5.346   8.657   0.491
    8CHTO   H78 3254   5.249   8.801   0.457
    8CHTO   C51 3255   5.523   8.927   0.569
    8CHTO   H93 3256   5.601   8.868   0.520
    8CHTO   O30 3257   5.571   8.989   0.689
    8CHTO   C46 3258   5.625   8.891   0.791
    8CHTO   H88 3259   5.704   8.831   0.745
    8CHTO   C53 3260   5.684   8.973   0.909
    8CHTO   O72 3261   5.795   9.052   0.865
    8CHTO  H199 3262   5.830   9.099   0.938
    8CHTO   O22 3263   5.482   9.038   0.486
    8CHTO   C31 3264   5.575   9.105   0.393
    8CHTO   H59 3265   5.520   9.195   0.356
    8CHTO   C29 3266   5.706   9.156   0.457
    8CHTO   H57 3267   5.757   9.069   0.502
    8CHTO   O21 3268   5.672   9.244   0.566
    8CHTO   H37 3269   5.635   9.324   0.533
    8CHTO   C27 3270   5.804   9.224   0.352
    8CHTO   H55 3271   5.757   9.316   0.315
    8CHTO    N5 3272   5.937   9.259   0.411
    8CHTO   H43 3273   5.946   9.224   0.512
    8CHTO   H44 3274   6.018   9.221   0.351
    8CHTO   C25 3275   5.818   9.128   0.229
    8CHTO   H53 3276   5.867   9.035   0.263
    8CHTO   O17 3277   5.688   9.094   0.175
    8CHTO   C32 3278   5.606   9.020   0.266
    8CHTO   H60 3279   5.657   8.929   0.296
    8CHTO   C36 3280   5.476   8.981   0.192
    8CHTO   O25 3281   5.504   8.895   0.080
    8CHTO   H40 3282   5.424   8.876   0.035
    8CHTO   O15 3283   5.903   9.190   0.114
    8CHTO   C19 3284   5.970   9.149   4.032
    8CHTO   H47 3285   5.888   9.131   3.961
    8CHTO   C20 3286   6.063   9.261   3.974
    8CHTO   H48 3287   6.134   9.297   0.009
    8CHTO   O19 3288   5.979   9.372   3.939
    8CHTO   H35 3289   5.920   9.349   3.869
    8CHTO   C21 3290   6.148   9.211   3.850
    8CHTO   H49 3291   6.080   9.190   3.767
    8CHTO    N4 3292   6.245   9.314   3.801
    8CHTO   H41 3293   6.316   9.338   3.878
    8CHTO   H42 3294   6.297   9.277   3.714
    8CHTO   C22 3295   6.218   9.078   3.889
    8CHTO   H50 3296   6.283   9.098   3.975
    8CHTO   O14 3297   6.118   8.982   3.925
    8CHTO   C23 3298   6.046   9.013   0.005
    8CHTO   H51 3299   6.119   9.016   0.087
    8CHTO   C34 3300   5.952   8.895   0.031
    8CHTO   O23 3301   6.026   8.777   0.064
    8CHTO   H38 3302   6.067   8.786   0.148
    8CHTO   O16 3303   6.291   9.016   3.782
    8CHTO   C24 3304   6.408   8.918   3.839
    8CHTO   H52 3305   6.400   8.902   3.947
    8CHTO   C26 3306   6.545   8.981   3.807
    8CHTO   H54 3307   6.550   9.003   3.698
    8CHTO   O20 3308   6.556   9.106   3.877
    8CHTO   H36 3309   6.554   9.093   3.970
    8CHTO   C30 3310   6.663   8.884   3.842
    8CHTO   H58 3311   6.669   8.873   3.952
    8CHTO    N6 3312   6.794   8.937   3.798
    8CHTO   H45 3313   6.815   9.031   3.847
    8CHTO   H46 3314   6.794   8.952   3.691
    8CHTO   C33 3315   6.636   8.740   3.788
    8CHTO   H61 3316   6.643   8.740   3.677
    8CHTO   O18 3317   6.503   8.698   3.824
    8CHTO   C28 3318   6.397   8.779   3.772
    8CHTO   H56 3319   6.406   8.790   3.664
    8CHTO   C35 3320   6.263   8.711   3.805
    8CHTO   O24 3321   6.248   8.585   3.738
    8CHTO   H39 3322   6.310   8.523   3.772
    8CHTO    O9 3323   6.735   8.646   3.833
    8CHTO   C13 3324   6.712   8.494   3.778
    8CHTO   H26 3325   6.657   8.500   3.681
    8CHTO   C11 3326   6.631   8.411   3.887
    8CHTO   H24 3327   6.527   8.447   3.886
    8CHTO    O8 3328   6.684   8.436   4.018
    8CHTO    H3 3329   6.773   8.406   4.024
    8CHTO    C9 3330   6.633   8.261   3.846
    8CHTO   H22 3331   6.596   8.259   3.742
    8CHTO    N2 3332   6.536   8.179   3.921
    8CHTO   H10 3333   6.565   8.172   4.025
    8CHTO   H11 3334   6.529   8.080   3.877
    8CHTO    C7 3335   6.783   8.208   3.845
    8CHTO   H20 3336   6.786   8.145   3.754
    8CHTO    O4 3337   6.880   8.314   3.835
    8CHTO   C14 3338   6.850   8.421   3.744
    8CHTO   H27 3339   6.843   8.378   3.642
    8CHTO   C18 3340   6.971   8.518   3.743
    8CHTO   O13 3341   7.089   8.453   3.696
    8CHTO    H7 3342   7.161   8.513   3.698
    8CHTO    O2 3343   6.823   8.116   3.978
    8CHTO    C1 3344   6.922   8.012   3.968
    8CHTO   H14 3345   6.982   8.015   0.020
    8CHTO    C2 3346   7.022   8.018   3.844
    8CHTO   H15 3347   6.961   8.022   3.753
    8CHTO    O6 3348   7.103   8.136   3.854
    8CHTO    H1 3349   7.050   8.213   3.842
    8CHTO    C3 3350   7.116   7.887   3.838
    8CHTO   H16 3351   7.187   7.893   3.921
    8CHTO    N1 3352   7.197   7.880   3.712
    8CHTO    H8 3353   7.132   7.875   3.626
    8CHTO    H9 3354   7.262   7.794   3.714
    8CHTO    C4 3355   7.032   7.756   3.862
    8CHTO   H17 3356   6.971   7.736   3.774
    8CHTO    O1 3357   6.948   7.768   3.978
    8CHTO    C5 3358   6.851   7.874   3.970
    8CHTO   H18 3359   6.795   7.864   3.876
    8CHTO   C16 3360   6.751   7.858   0.048
    8CHTO   O11 3361   6.815   7.865   0.175
    8CHTO    H5 3362   6.847   7.953   0.190
    8CHTO    O3 3363   7.118   7.643   3.889
    8CHTO    C6 3364   7.052   7.512   3.880
    8CHTO   H19 3365   6.943   7.519   3.885
    8CHTO    C8 3366   7.090   7.440   3.747
    8CHTO   H21 3367   7.199   7.434   3.741
    8CHTO    O7 3368   7.040   7.521   3.639
    8CHTO    H2 3369   7.069   7.486   3.557
    8CHTO   C12 3370   7.030   7.293   3.744
    8CHTO   H25 3371   6.919   7.306   3.738
    8CHTO    N3 3372   7.071   7.218   3.621
    8CHTO   H12 3373   7.036   7.269   3.533
    8CHTO   H13 3374   7.178   7.208   3.619
    8CHTO   C15 3375   7.064   7.217   3.878
    8CHTO   H28 3376   7.169   7.187   3.882
    8CHTO   O10 3377   6.974   7.094   3.898
    8CHTO    H4 3378   6.991   7.031   3.830
    8CHTO    O5 3379   7.031   7.295   3.994
    8CHTO   C10 3380   7.096   7.423   4.000
    8CHTO   H23 3381   7.204   7.407   3.997
    8CHTO   C17 3382   7.063   7.488   0.094
    8CHTO   O12 3383   7.119   7.415   0.204
    8CHTO    H6 3384   7.076   7.332   0.213
    9CHTO  H203 3385   6.990   3.302   0.036
    9CHTO   O82 3386   7.021   3.358   4.008
    9CHTO  C123 3387   7.161   3.333   3.982
    9CHTO  H227 3388   7.214   3.329   0.038
    9CHTO   O77 3389   7.160   3.201   3.920
    9CHTO  C118 3390   7.291   3.149   3.893
    9CHTO  H222 3391   7.351   3.147   3.985
    9CHTO  C125 3392   7.275   3.001   3.839
    9CHTO   O84 3393   7.216   2.916   3.938
    9CHTO  H205 3394   7.276   2.904   4.010
    9CHTO  C114 3395   7.361   3.238   3.789
    9CHTO  H218 3396   7.303   3.236   3.696
    9CHTO  C116 3397   7.367   3.386   3.837
    9CHTO  H220 3398   7.441   3.394   3.920
    9CHTO   O79 3399   7.419   3.466   3.729
    9CHTO  H201 3400   7.432   3.555   3.758
    9CHTO  C120 3401   7.225   3.438   3.885
    9CHTO  H224 3402   7.162   3.448   3.794
    9CHTO   N21 3403   7.233   3.574   3.945
    9CHTO  H211 3404   7.154   3.588   4.018
    9CHTO  H212 3405   7.329   3.590   3.992
    9CHTO   O75 3406   7.491   3.179   3.768
    9CHTO  C112 3407   7.542   3.185   3.613
    9CHTO  H216 3408   7.497   3.272   3.563
    9CHTO   O73 3409   7.504   3.062   3.550
    9CHTO  C113 3410   7.536   3.054   3.410
    9CHTO  H217 3411   7.487   3.138   3.357
    9CHTO  C124 3412   7.475   2.923   3.357
    9CHTO   O83 3413   7.480   2.910   3.215
    9CHTO  H204 3414   7.569   2.900   3.187
    9CHTO  C109 3415   7.690   3.061   3.391
    9CHTO  H213 3416   7.733   2.971   3.438
    9CHTO  C110 3417   7.747   3.190   3.459
    9CHTO  H214 3418   7.713   3.277   3.403
    9CHTO   O78 3419   7.891   3.188   3.452
    9CHTO  H200 3420   7.919   3.195   3.363
    9CHTO  C111 3421   7.699   3.200   3.607
    9CHTO  H215 3422   7.743   3.117   3.664
    9CHTO   N19 3423   7.742   3.326   3.674
    9CHTO  H207 3424   7.850   3.333   3.674
    9CHTO  H208 3425   7.707   3.327   3.777
    9CHTO   O74 3426   7.722   3.058   3.248
    9CHTO  C115 3427   7.862   2.996   3.212
    9CHTO  H219 3428   7.929   2.996   3.299
    9CHTO   O76 3429   7.850   2.839   3.169
    9CHTO  C122 3430   7.789   2.816   3.040
    9CHTO  H226 3431   7.684   2.843   3.046
    9CHTO  C126 3432   7.793   2.661   3.010
    9CHTO   O85 3433   7.713   2.586   3.102
    9CHTO  H206 3434   7.622   2.604   3.089
    9CHTO  C121 3435   7.862   2.898   2.928
    9CHTO  H225 3436   7.969   2.869   2.924
    9CHTO   O81 3437   7.806   2.872   2.798
    9CHTO  H202 3438   7.715   2.896   2.796
    9CHTO  C119 3439   7.852   3.050   2.965
    9CHTO  H223 3440   7.902   3.104   2.884
    9CHTO  C117 3441   7.924   3.086   3.100
    9CHTO  H221 3442   7.908   3.188   3.135
    9CHTO   N20 3443   8.074   3.071   3.093
    9CHTO  H209 3444   8.114   3.135   3.016
    9CHTO  H210 3445   8.118   3.098   3.189
    9CHTO   O80 3446   7.707   3.106   2.954
    9CHTO  C103 3447   7.682   3.262   2.933
    9CHTO  H190 3448   7.718   3.319   3.018
    9CHTO  C101 3449   7.742   3.323   2.800
    9CHTO  H188 3450   7.727   3.251   2.719
    9CHTO   O68 3451   7.896   3.343   2.819
    9CHTO  H168 3452   7.937   3.260   2.835
    9CHTO   C99 3453   7.672   3.461   2.759
    9CHTO  H186 3454   7.698   3.538   2.834
    9CHTO   N17 3455   7.716   3.513   2.625
    9CHTO  H174 3456   7.780   3.442   2.575
    9CHTO  H175 3457   7.766   3.608   2.637
    9CHTO   C97 3458   7.517   3.447   2.766
    9CHTO  H184 3459   7.483   3.376   2.689
    9CHTO   O64 3460   7.481   3.405   2.899
    9CHTO  C104 3461   7.524   3.273   2.932
    9CHTO  H191 3462   7.483   3.198   2.864
    9CHTO  C108 3463   7.470   3.237   3.071
    9CHTO   O71 3464   7.327   3.236   3.073
    9CHTO  H171 3465   7.297   3.215   3.160
    9CHTO   O62 3466   7.445   3.573   2.758
    9CHTO   C91 3467   7.383   3.612   2.634
    9CHTO  H178 3468   7.463   3.625   2.561
    9CHTO   C92 3469   7.321   3.754   2.655
    9CHTO  H179 3470   7.395   3.820   2.704
    9CHTO   O66 3471   7.298   3.811   2.526
    9CHTO  H166 3472   7.272   3.900   2.533
    9CHTO   C93 3473   7.183   3.751   2.733
    9CHTO  H180 3474   7.133   3.846   2.711
    9CHTO   N16 3475   7.201   3.750   2.881
    9CHTO  H172 3476   7.149   3.833   2.926
    9CHTO  H173 3477   7.167   3.656   2.924
    9CHTO   C94 3478   7.091   3.632   2.683
    9CHTO  H181 3479   7.084   3.552   2.756
    9CHTO   O61 3480   7.142   3.573   2.562
    9CHTO   C95 3481   7.272   3.513   2.574
    9CHTO  H182 3482   7.264   3.425   2.638
    9CHTO  C106 3483   7.310   3.463   2.430
    9CHTO   O69 3484   7.433   3.391   2.430
    9CHTO  H169 3485   7.453   3.362   2.343
    9CHTO   O63 3486   6.948   3.690   2.651
    9CHTO   C96 3487   6.838   3.659   2.761
    9CHTO  H183 3488   6.886   3.657   2.859
    9CHTO   C98 3489   6.764   3.523   2.741
    9CHTO  H185 3490   6.735   3.514   2.635
    9CHTO   O67 3491   6.859   3.418   2.764
    9CHTO  H167 3492   6.888   3.418   2.853
    9CHTO  C102 3493   6.634   3.504   2.835
    9CHTO  H189 3494   6.673   3.490   2.937
    9CHTO   N18 3495   6.553   3.384   2.805
    9CHTO  H176 3496   6.470   3.378   2.874
    9CHTO  H177 3497   6.614   3.295   2.814
    9CHTO  C105 3498   6.549   3.634   2.832
    9CHTO  H192 3499   6.502   3.644   2.734
    9CHTO   O65 3500   6.629   3.751   2.857
    9CHTO  C100 3501   6.733   3.776   2.762
    9CHTO  H187 3502   6.689   3.785   2.661
    9CHTO  C107 3503   6.800   3.912   2.795
    9CHTO   O70 3504   6.707   4.020   2.783
    9CHTO  H170 3505   6.642   4.014   2.851
    9CHTO   O57 3506   6.435   3.623   2.949
    9CHTO   C85 3507   6.304   3.678   2.929
    9CHTO  H157 3508   6.257   3.617   2.849
    9CHTO   C83 3509   6.311   3.824   2.871
    9CHTO  H155 3510   6.357   3.819   2.772
    9CHTO   O56 3511   6.400   3.902   2.954
    9CHTO  H135 3512   6.414   3.987   2.916
    9CHTO   C81 3513   6.168   3.882   2.858
    9CHTO  H153 3514   6.110   3.816   2.794
    9CHTO   N14 3515   6.165   4.012   2.786
    9CHTO  H141 3516   6.215   4.088   2.843
    9CHTO  H142 3517   6.064   4.043   2.769
    9CHTO   C79 3518   6.099   3.888   2.999
    9CHTO  H151 3519   5.997   3.923   2.983
    9CHTO   O52 3520   6.090   3.753   3.055
    9CHTO   C86 3521   6.217   3.679   3.061
    9CHTO  H158 3522   6.272   3.729   3.142
    9CHTO   C90 3523   6.190   3.535   3.111
    9CHTO   O60 3524   6.095   3.467   3.028
    9CHTO  H138 3525   6.132   3.449   2.944
    9CHTO   O50 3526   6.164   3.976   3.092
    9CHTO   C73 3527   6.163   4.073   3.197
    9CHTO  H145 3528   6.063   4.076   3.244
    9CHTO   C74 3529   6.197   4.215   3.142
    9CHTO  H146 3530   6.122   4.238   3.065
    9CHTO   O54 3531   6.178   4.311   3.248
    9CHTO  H133 3532   6.087   4.317   3.270
    9CHTO   C75 3533   6.344   4.215   3.084
    9CHTO  H147 3534   6.347   4.146   2.998
    9CHTO   N13 3535   6.388   4.344   3.027
    9CHTO  H139 3536   6.474   4.383   3.080
    9CHTO  H140 3537   6.309   4.418   3.031
    9CHTO   C76 3538   6.446   4.157   3.193
    9CHTO  H148 3539   6.456   4.231   3.273
    9CHTO   O49 3540   6.400   4.030   3.250
    9CHTO   C77 3541   6.267   4.033   3.305
    9CHTO  H149 3542   6.263   4.105   3.387
    9CHTO   C88 3543   6.238   3.896   3.369
    9CHTO   O58 3544   6.103   3.891   3.432
    9CHTO  H136 3545   6.100   3.950   3.505
    9CHTO   O51 3546   6.588   4.122   3.123
    9CHTO   C78 3547   6.704   4.104   3.227
    9CHTO  H150 3548   6.665   4.100   3.331
    9CHTO   C80 3549   6.805   4.221   3.217
    9CHTO  H152 3550   6.842   4.226   3.112
    9CHTO   O55 3551   6.732   4.342   3.244
    9CHTO  H134 3552   6.788   4.417   3.232
    9CHTO   C84 3553   6.927   4.202   3.316
    9CHTO  H156 3554   6.888   4.205   3.417
    9CHTO   N15 3555   7.031   4.310   3.305
    9CHTO  H143 3556   7.042   4.360   3.399
    9CHTO  H144 3557   7.003   4.382   3.231
    9CHTO   C87 3558   6.991   4.062   3.293
    9CHTO  H159 3559   7.040   4.058   3.196
    9CHTO   O53 3560   6.877   3.953   3.301
    9CHTO   C82 3561   6.777   3.971   3.200
    9CHTO  H154 3562   6.822   3.972   3.101
    9CHTO   C89 3563   6.679   3.851   3.205
    9CHTO   O59 3564   6.745   3.729   3.167
    9CHTO  H137 3565   6.807   3.704   3.233
    9CHTO   O45 3566   7.105   4.027   3.411
    9CHTO   C67 3567   7.134   3.887   3.424
    9CHTO  H124 3568   7.039   3.833   3.429
    9CHTO   C65 3569   7.217   3.831   3.303
    9CHTO  H122 3570   7.277   3.915   3.266
    9CHTO   O44 3571   7.122   3.794   3.202
    9CHTO  H102 3572   7.076   3.716   3.228
    9CHTO   C63 3573   7.323   3.722   3.346
    9CHTO  H120 3574   7.408   3.772   3.393
    9CHTO   N11 3575   7.390   3.647   3.235
    9CHTO  H108 3576   7.468   3.585   3.275
    9CHTO  H109 3577   7.319   3.586   3.184
    9CHTO   C61 3578   7.258   3.631   3.457
    9CHTO  H118 3579   7.335   3.560   3.490
    9CHTO   O40 3580   7.218   3.708   3.576
    9CHTO   C68 3581   7.207   3.854   3.561
    9CHTO  H125 3582   7.309   3.897   3.559
    9CHTO   C72 3583   7.134   3.914   3.684
    9CHTO   O48 3584   6.997   3.875   3.697
    9CHTO  H105 3585   6.947   3.911   3.626
    9CHTO   O38 3586   7.143   3.560   3.405
    9CHTO   C55 3587   7.094   3.450   3.483
    9CHTO  H112 3588   7.123   3.463   3.588
    9CHTO   C56 3589   7.146   3.312   3.425
    9CHTO  H113 3590   7.119   3.310   3.318
    9CHTO   O42 3591   7.290   3.309   3.428
    9CHTO  H100 3592   7.320   3.313   3.517
    9CHTO   C57 3593   7.080   3.191   3.502
    9CHTO  H114 3594   7.120   3.192   3.603
    9CHTO   N10 3595   7.115   3.058   3.444
    9CHTO  H106 3596   7.215   3.061   3.402
    9CHTO  H107 3597   7.045   3.031   3.367
    9CHTO   C58 3598   6.926   3.209   3.510
    9CHTO  H115 3599   6.882   3.195   3.408
    9CHTO   O37 3600   6.892   3.339   3.561
    9CHTO   C59 3601   6.939   3.449   3.481
    9CHTO  H116 3602   6.902   3.439   3.379
    9CHTO   C70 3603   6.880   3.578   3.538
    9CHTO   O46 3604   6.912   3.598   3.676
    9CHTO  H103 3605   6.873   3.678   3.707
    9CHTO   O39 3606   6.862   3.102   3.614
    9CHTO   C60 3607   6.718   3.106   3.621
    9CHTO  H117 3608   6.682   3.202   3.583
    9CHTO   C62 3609   6.655   2.994   3.533
    9CHTO  H119 3610   6.687   3.014   3.428
    9CHTO   O43 3611   6.706   2.866   3.574
    9CHTO  H101 3612   6.672   2.799   3.518
    9CHTO   C66 3613   6.495   3.005   3.542
    9CHTO  H123 3614   6.465   3.105   3.509
    9CHTO   N12 3615   6.425   2.909   3.452
    9CHTO  H110 3616   6.453   2.808   3.477
    9CHTO  H111 3617   6.449   2.932   3.349
    9CHTO   C69 3618   6.450   2.991   3.690
    9CHTO  H126 3619   6.476   2.889   3.727
    9CHTO   O41 3620   6.521   3.099   3.777
    9CHTO   C64 3621   6.672   3.095   3.768
    9CHTO  H121 3622   6.709   2.999   3.811
    9CHTO   C71 3623   6.729   3.211   3.854
    9CHTO   O47 3624   6.695   3.196   3.992
    9CHTO  H104 3625   6.603   3.210   4.004
    9CHTO   O34 3626   6.297   3.012   3.706
    9CHTO   C49 3627   6.170   3.022   3.784
    9CHTO   H91 3628   6.099   3.073   3.720
    9CHTO   C47 3629   6.193   3.106   3.911
    9CHTO   H89 3630   6.090   3.125   3.950
    9CHTO   O33 3631   6.252   3.234   3.879
    9CHTO   H70 3632   6.193   3.284   3.825
    9CHTO   C45 3633   6.285   3.029   4.021
    9CHTO   H87 3634   6.388   3.064   4.011
    9CHTO    N8 3635   6.235   3.066   0.115
    9CHTO   H75 3636   6.238   3.173   0.128
    9CHTO   H76 3637   6.296   3.018   0.191
    9CHTO   C43 3638   6.291   2.870   3.988
    9CHTO   H85 3639   6.363   2.861   3.907
    9CHTO   O29 3640   6.161   2.824   3.950
    9CHTO   C50 3641   6.111   2.883   3.827
    9CHTO   H92 3642   6.130   2.812   3.746
    9CHTO   C54 3643   5.956   2.885   3.838
    9CHTO   O36 3644   5.893   2.929   3.717
    9CHTO   H72 3645   5.912   3.020   3.702
    9CHTO   O27 3646   6.349   2.790   0.052
    9CHTO   C37 3647   6.477   2.763   0.113
    9CHTO   H79 3648   6.486   2.655   0.134
    9CHTO   C38 3649   6.596   2.798   0.016
    9CHTO   H80 3650   6.576   2.896   4.012
    9CHTO   O31 3651   6.597   2.699   3.952
    9CHTO   H68 3652   6.522   2.709   3.897
    9CHTO   C39 3653   6.736   2.805   0.091
    9CHTO   H81 3654   6.760   2.705   0.126
    9CHTO    N7 3655   6.848   2.849   0.001
    9CHTO   H73 3656   6.925   2.774   4.038
    9CHTO   H74 3657   6.890   2.943   0.035
    9CHTO   C40 3658   6.718   2.896   0.218
    9CHTO   H82 3659   6.684   2.994   0.184
    9CHTO   O26 3660   6.622   2.833   0.303
    9CHTO   C41 3661   6.487   2.840   0.248
    9CHTO   H83 3662   6.463   2.946   0.230
    9CHTO   C52 3663   6.388   2.787   0.354
    9CHTO   O35 3664   6.415   2.648   0.394
    9CHTO   H71 3665   6.351   2.620   0.457
    9CHTO   O28 3666   6.836   2.915   0.300
    9CHTO   C42 3667   6.847   3.041   0.376
    9CHTO   H84 3668   6.931   3.021   0.443
    9CHTO   C44 3669   6.724   3.072   0.470
    9CHTO   H86 3670   6.632   3.054   0.414
    9CHTO   O32 3671   6.728   2.978   0.578
    9CHTO   H69 3672   6.709   2.891   0.547
    9CHTO   C48 3673   6.717   3.222   0.520
    9CHTO   H90 3674   6.800   3.241   0.589
    9CHTO    N9 3675   6.591   3.250   0.599
    9CHTO   H77 3676   6.588   3.187   0.686
    9CHTO   H78 3677   6.505   3.234   0.537
    9CHTO   C51 3678   6.734   3.313   0.394
    9CHTO   H93 3679   6.662   3.281   0.319
    9CHTO   O30 3680   6.869   3.294   0.350
    9CHTO   C46 3681   6.889   3.161   0.283
    9CHTO   H88 3682   6.830   3.159   0.192
    9CHTO   C53 3683   7.040   3.154   0.249
    9CHTO   O72 3684   7.073   3.040   0.169
    9CHTO  H199 3685   7.063   2.962   0.220
    9CHTO   O22 3686   6.721   3.455   0.419
    9CHTO   C31 3687   6.678   3.547   0.311
    9CHTO   H59 3688   6.679   3.648   0.356
    9CHTO   C29 3689   6.772   3.552   0.189
    9CHTO   H57 3690   6.776   3.450   0.145
    9CHTO   O21 3691   6.905   3.582   0.237
    9CHTO   H37 3692   6.967   3.574   0.167
    9CHTO   C27 3693   6.721   3.654   0.079
    9CHTO   H55 3694   6.724   3.755   0.122
    9CHTO    N5 3695   6.806   3.652   3.998
    9CHTO   H43 3696   6.748   3.631   3.909
    9CHTO   H44 3697   6.858   3.746   3.988
    9CHTO   C25 3698   6.571   3.623   0.046
    9CHTO   H53 3699   6.564   3.524   4.039
    9CHTO   O17 3700   6.490   3.621   0.168
    9CHTO   C32 3701   6.531   3.523   0.264
    9CHTO   H60 3702   6.524   3.424   0.219
    9CHTO   C36 3703   6.430   3.527   0.382
    9CHTO   O25 3704   6.425   3.655   0.446
    9CHTO   H40 3705   6.363   3.653   0.516
    9CHTO   O15 3706   6.508   3.732   3.989
    9CHTO   C19 3707   6.422   3.717   3.872
    9CHTO   H47 3708   6.396   3.821   3.845
    9CHTO   C20 3709   6.493   3.651   3.750
    9CHTO   H48 3710   6.533   3.551   3.775
    9CHTO   O19 3711   6.604   3.736   3.716
    9CHTO   H35 3712   6.656   3.697   3.648
    9CHTO   C21 3713   6.394   3.635   3.627
    9CHTO   H49 3714   6.366   3.734   3.592
    9CHTO    N4 3715   6.457   3.565   3.511
    9CHTO   H41 3716   6.491   3.467   3.540
    9CHTO   H42 3717   6.541   3.622   3.475
    9CHTO   C22 3718   6.265   3.564   3.676
    9CHTO   H50 3719   6.291   3.463   3.709
    9CHTO   O14 3720   6.206   3.638   3.784
    9CHTO   C23 3721   6.287   3.645   3.903
    9CHTO   H51 3722   6.303   3.543   3.940
    9CHTO   C34 3723   6.208   3.722   4.010
    9CHTO   O23 3724   6.086   3.654   0.002
    9CHTO   H38 3725   6.040   3.703   0.068
    9CHTO   O16 3726   6.162   3.561   3.575
    9CHTO   C24 3727   6.072   3.425   3.579
    9CHTO   H52 3728   6.084   3.371   3.673
    9CHTO   C26 3729   6.113   3.335   3.462
    9CHTO   H54 3730   6.107   3.395   3.368
    9CHTO   O20 3731   6.249   3.294   3.481
    9CHTO   H36 3732   6.307   3.368   3.472
    9CHTO   C30 3733   6.019   3.211   3.447
    9CHTO   H58 3734   6.040   3.140   3.528
    9CHTO    N6 3735   6.046   3.137   3.321
    9CHTO   H45 3736   6.149   3.103   3.320
    9CHTO   H46 3737   5.981   3.051   3.314
    9CHTO   C33 3738   5.868   3.249   3.461
    9CHTO   H61 3739   5.833   3.298   3.369
    9CHTO   O18 3740   5.846   3.339   3.572
    9CHTO   C28 3741   5.921   3.461   3.568
    9CHTO   H56 3742   5.905   3.514   3.474
    9CHTO   C35 3743   5.879   3.552   3.685
    9CHTO   O24 3744   5.740   3.587   3.680
    9CHTO   H39 3745   5.724   3.645   3.608
    9CHTO    O9 3746   5.789   3.129   3.475
    9CHTO   C13 3747   5.642   3.130   3.403
    9CHTO   H26 3748   5.653   3.180   3.305
    9CHTO   C11 3749   5.535   3.203   3.496
    9CHTO   H24 3750   5.539   3.310   3.472
    9CHTO    O8 3751   5.570   3.187   3.635
    9CHTO    H3 3752   5.512   3.238   3.688
    9CHTO    C9 3753   5.394   3.147   3.462
    9CHTO   H22 3754   5.384   3.155   3.353
    9CHTO    N2 3755   5.282   3.228   3.516
    9CHTO   H10 3756   5.282   3.225   3.623
    9CHTO   H11 3757   5.188   3.192   3.477
    9CHTO    C7 3758   5.391   2.994   3.503
    9CHTO   H20 3759   5.309   2.950   3.441
    9CHTO    O4 3760   5.515   2.925   3.474
    9CHTO   C14 3761   5.596   2.980   3.369
    9CHTO   H27 3762   5.537   2.982   3.275
    9CHTO   C18 3763   5.715   2.884   3.346
    9CHTO   O13 3764   5.792   2.924   3.233
    9CHTO    H7 3765   5.838   3.004   3.252
    9CHTO    O2 3766   5.357   2.973   3.661
    9CHTO    C1 3767   5.348   2.837   3.708
    9CHTO   H14 3768   5.408   2.771   3.642
    9CHTO    C2 3769   5.199   2.782   3.712
    9CHTO   H15 3770   5.139   2.862   3.759
    9CHTO    O6 3771   5.153   2.763   3.577
    9CHTO    H1 3772   5.205   2.697   3.534
    9CHTO    C3 3773   5.189   2.647   3.799
    9CHTO   H16 3774   5.241   2.566   3.746
    9CHTO    N1 3775   5.046   2.602   3.817
    9CHTO    H8 3776   5.002   2.582   3.721
    9CHTO    H9 3777   4.990   2.679   3.868
    9CHTO    C4 3778   5.265   2.666   3.935
    9CHTO   H17 3779   5.214   2.743   3.994
    9CHTO    O1 3780   5.401   2.703   3.909
    9CHTO    C5 3781   5.415   2.832   3.848
    9CHTO   H18 3782   5.367   2.906   3.911
    9CHTO   C16 3783   5.566   2.864   3.839
    9CHTO   O11 3784   5.625   2.868   3.969
    9CHTO    H5 3785   5.716   2.888   3.961
    9CHTO    O3 3786   5.275   2.543   4.011
    9CHTO    C6 3787   5.287   2.556   0.116
    9CHTO   H19 3788   5.301   2.660   0.149
    9CHTO    C8 3789   5.158   2.500   0.183
    9CHTO   H21 3790   5.135   2.403   0.138
    9CHTO    O7 3791   5.051   2.593   0.154
    9CHTO    H2 3792   5.030   2.590   0.063
    9CHTO   C12 3793   5.177   2.480   0.339
    9CHTO   H25 3794   5.184   2.582   0.383
    9CHTO    N3 3795   5.056   2.414   0.401
    9CHTO   H12 3796   5.014   2.477   0.478
    9CHTO   H13 3797   5.082   2.317   0.442
    9CHTO   C15 3798   5.311   2.404   0.368
    9CHTO   H28 3799   5.306   2.301   0.333
    9CHTO   O10 3800   5.350   2.404   0.519
    9CHTO    H4 3801   5.353   2.492   0.551
    9CHTO    O5 3802   5.421   2.472   0.307
    9CHTO   C10 3803   5.412   2.477   0.163
    9CHTO   H23 3804   5.406   2.375   0.126
    9CHTO   C17 3805   5.543   2.536   0.110
    9CHTO   O12 3806   5.572   2.666   0.162
    9CHTO    H6 3807   5.652   2.697   0.126
   10CHTO  H203 3808   6.049   6.068   3.305
   10CHTO   O82 3809   5.979   6.127   3.327
   10CHTO  C123 3810   5.852   6.061   3.315
   10CHTO  H227 3811   5.850   6.005   3.221
   10CHTO   O77 3812   5.851   5.969   3.429
   10CHTO  C118 3813   5.734   5.887   3.436
   10CHTO  H222 3814   5.722   5.831   3.341
   10CHTO  C125 3815   5.753   5.783   3.553
   10CHTO   O84 3816   5.765   5.846   3.681
   10CHTO  H205 3817   5.846   5.894   3.685
   10CHTO  C114 3818   5.610   5.976   3.457
   10CHTO  H218 3819   5.622   6.030   3.551
   10CHTO  C116 3820   5.597   6.082   3.343
   10CHTO  H220 3821   5.571   6.029   3.248
   10CHTO   O79 3822   5.485   6.168   3.372
   10CHTO  H201 3823   5.500   6.217   3.451
   10CHTO  C120 3824   5.732   6.162   3.326
   10CHTO  H224 3825   5.744   6.223   3.417
   10CHTO   N21 3826   5.726   6.256   3.211
   10CHTO  H211 3827   5.758   6.207   3.120
   10CHTO  H212 3828   5.788   6.342   3.230
   10CHTO   O75 3829   5.499   5.885   3.465
   10CHTO  C112 3830   5.388   5.927   3.576
   10CHTO  H216 3831   5.386   6.037   3.585
   10CHTO   O73 3832   5.426   5.865   3.700
   10CHTO  C113 3833   5.335   5.893   3.807
   10CHTO  H217 3834   5.325   6.003   3.818
   10CHTO  C124 3835   5.394   5.840   3.939
   10CHTO   O83 3836   5.418   5.699   3.940
   10CHTO  H204 3837   5.454   5.674   4.023
   10CHTO  C109 3838   5.195   5.831   3.777
   10CHTO  H213 3839   5.209   5.722   3.770
   10CHTO  C110 3840   5.141   5.888   3.642
   10CHTO  H214 3841   5.114   5.992   3.658
   10CHTO   O78 3842   5.021   5.817   3.608
   10CHTO  H200 3843   4.981   5.855   3.533
   10CHTO  C111 3844   5.247   5.876   3.528
   10CHTO  H215 3845   5.258   5.770   3.501
   10CHTO   N19 3846   5.207   5.948   3.404
   10CHTO  H207 3847   5.191   6.053   3.425
   10CHTO  H208 3848   5.116   5.905   3.365
   10CHTO   O74 3849   5.102   5.861   3.886
   10CHTO  C115 3850   5.007   5.743   3.920
   10CHTO  H219 3851   4.982   5.684   3.831
   10CHTO   O76 3852   5.075   5.640   4.017
   10CHTO  C122 3853   5.086   5.690   0.110
   10CHTO  H226 3854   5.148   5.780   0.107
   10CHTO  C126 3855   5.166   5.586   0.197
   10CHTO   O85 3856   5.300   5.565   0.149
   10CHTO  H206 3857   5.350   5.643   0.161
   10CHTO  C121 3858   4.945   5.722   0.174
   10CHTO  H225 3859   4.921   5.646   0.251
   10CHTO   O81 3860   4.950   5.849   0.240
   10CHTO  H202 3861   5.010   5.846   0.312
   10CHTO  C119 3862   4.831   5.721   0.067
   10CHTO  H223 3863   4.823   5.617   0.034
   10CHTO  C117 3864   4.874   5.805   3.981
   10CHTO  H221 3865   4.897   5.910   4.002
   10CHTO   N20 3866   4.765   5.810   3.878
   10CHTO  H209 3867   4.796   5.871   3.795
   10CHTO  H210 3868   4.742   5.710   3.844
   10CHTO   O80 3869   4.684   5.747   0.129
   10CHTO  C103 3870   4.582   5.627   0.135
   10CHTO  H190 3871   4.589   5.568   0.044
   10CHTO  C101 3872   4.597   5.530   0.258
   10CHTO  H188 3873   4.595   5.588   0.350
   10CHTO   O68 3874   4.734   5.459   0.247
   10CHTO  H168 3875   4.749   5.405   0.323
   10CHTO   C99 3876   4.477   5.423   0.261
   10CHTO  H186 3877   4.490   5.356   0.174
   10CHTO   N17 3878   4.476   5.335   0.382
   10CHTO  H174 3879   4.501   5.233   0.355
   10CHTO  H175 3880   4.544   5.373   0.458
   10CHTO   C97 3881   4.339   5.492   0.240
   10CHTO  H184 3882   4.308   5.541   0.334
   10CHTO   O64 3883   4.341   5.584   0.129
   10CHTO  C104 3884   4.438   5.690   0.138
   10CHTO  H191 3885   4.426   5.749   0.229
   10CHTO  C108 3886   4.417   5.787   0.021
   10CHTO   O71 3887   4.289   5.851   0.030
   10CHTO  H171 3888   4.277   5.908   3.998
   10CHTO   O62 3889   4.241   5.396   0.196
   10CHTO   C91 3890   4.118   5.383   0.269
   10CHTO  H178 3891   4.135   5.411   0.373
   10CHTO   C92 3892   4.079   5.232   0.269
   10CHTO  H179 3893   4.079   5.195   0.165
   10CHTO   O66 3894   4.184   5.159   0.337
   10CHTO  H166 3895   4.169   5.067   0.330
   10CHTO   C93 3896   3.938   5.204   0.337
   10CHTO  H180 3897   3.949   5.223   0.445
   10CHTO   N16 3898   3.896   5.062   0.325
   10CHTO  H172 3899   3.804   5.053   0.268
   10CHTO  H173 3900   3.885   5.017   0.422
   10CHTO   C94 3901   3.830   5.302   0.279
   10CHTO  H181 3902   3.811   5.284   0.173
   10CHTO   O61 3903   3.876   5.437   0.290
   10CHTO   C95 3904   3.995   5.466   0.214
   10CHTO  H182 3905   3.978   5.439   0.109
   10CHTO  C106 3906   4.020   5.620   0.219
   10CHTO   O69 3907   3.915   5.692   0.154
   10CHTO  H169 3908   3.836   5.686   0.204
   10CHTO   O63 3909   3.685   5.290   0.363
   10CHTO   C96 3910   3.684   5.352   0.512
   10CHTO  H183 3911   3.785   5.385   0.536
   10CHTO   C98 3912   3.637   5.252   0.621
   10CHTO  H185 3913   3.538   5.213   0.593
   10CHTO   O67 3914   3.725   5.138   0.622
   10CHTO  H167 3915   3.717   5.090   0.542
   10CHTO  C102 3916   3.633   5.318   0.768
   10CHTO  H189 3917   3.734   5.304   0.809
   10CHTO   N18 3918   3.542   5.249   0.863
   10CHTO  H176 3919   3.574   5.146   0.877
   10CHTO  H177 3920   3.441   5.250   0.825
   10CHTO  C105 3921   3.607   5.472   0.762
   10CHTO  H192 3922   3.545   5.502   0.846
   10CHTO   O65 3923   3.538   5.516   0.643
   10CHTO  C100 3924   3.587   5.477   0.513
   10CHTO  H187 3925   3.498   5.449   0.454
   10CHTO  C107 3926   3.649   5.600   0.443
   10CHTO   O70 3927   3.769   5.643   0.507
   10CHTO  H170 3928   3.804   5.718   0.462
   10CHTO   O57 3929   3.752   5.538   0.779
   10CHTO   C85 3930   3.771   5.649   0.869
   10CHTO  H157 3931   3.671   5.696   0.884
   10CHTO   C83 3932   3.860   5.757   0.799
   10CHTO  H155 3933   3.805   5.794   0.712
   10CHTO   O56 3934   3.980   5.695   0.750
   10CHTO  H135 3935   4.030   5.757   0.700
   10CHTO   C81 3936   3.884   5.876   0.896
   10CHTO  H153 3937   3.787   5.917   0.925
   10CHTO   N14 3938   3.952   5.992   0.832
   10CHTO  H141 3939   4.052   5.964   0.804
   10CHTO  H142 3940   3.957   6.074   0.900
   10CHTO   C79 3941   3.956   5.826   1.027
   10CHTO  H151 3942   3.962   5.911   1.095
   10CHTO   O52 3943   3.874   5.724   1.092
   10CHTO   C86 3944   3.839   5.610   1.007
   10CHTO  H158 3945   3.935   5.557   0.991
   10CHTO   C90 3946   3.750   5.513   1.088
   10CHTO   O60 3947   3.821   5.458   1.200
   10CHTO  H138 3948   3.764   5.402   1.249
   10CHTO   O50 3949   4.089   5.777   1.005
   10CHTO   C73 3950   4.223   5.729   1.026
   10CHTO  H145 3951   4.271   5.708   0.930
   10CHTO   C74 3952   4.221   5.597   1.111
   10CHTO  H146 3953   4.157   5.525   1.057
   10CHTO   O54 3954   4.354   5.541   1.110
   10CHTO  H133 3955   4.377   5.513   1.024
   10CHTO   C75 3956   4.167   5.628   1.256
   10CHTO  H147 3957   4.064   5.664   1.248
   10CHTO   N13 3958   4.162   5.509   1.346
   10CHTO  H139 3959   4.061   5.491   1.379
   10CHTO  H140 3960   4.199   5.421   1.296
   10CHTO   C76 3961   4.254   5.746   1.320
   10CHTO  H148 3962   4.356   5.710   1.332
   10CHTO   O49 3963   4.253   5.863   1.232
   10CHTO   C77 3964   4.306   5.837   1.101
   10CHTO  H149 3965   4.409   5.802   1.111
   10CHTO   C88 3966   4.314   5.969   1.023
   10CHTO   O58 3967   4.408   6.066   1.088
   10CHTO  H136 3968   4.374   6.093   1.171
   10CHTO   O51 3969   4.190   5.798   1.454
   10CHTO   C78 3970   4.299   5.859   1.546
   10CHTO  H150 3971   4.394   5.876   1.491
   10CHTO   C80 3972   4.327   5.763   1.664
   10CHTO  H152 3973   4.230   5.741   1.716
   10CHTO   O55 3974   4.378   5.640   1.610
   10CHTO  H134 3975   4.311   5.595   1.563
   10CHTO   C84 3976   4.429   5.827   1.767
   10CHTO  H156 3977   4.525   5.834   1.718
   10CHTO   N15 3978   4.448   5.741   1.889
   10CHTO  H143 3979   4.520   5.787   1.955
   10CHTO  H144 3980   4.356   5.729   1.941
   10CHTO   C87 3981   4.386   5.971   1.805
   10CHTO  H159 3982   4.299   5.969   1.871
   10CHTO   O53 3983   4.354   6.053   1.677
   10CHTO   C82 3984   4.250   5.995   1.598
   10CHTO  H154 3985   4.160   5.983   1.659
   10CHTO   C89 3986   4.215   6.094   1.484
   10CHTO   O59 3987   4.327   6.124   1.400
   10CHTO  H137 3988   4.390   6.174   1.448
   10CHTO   O45 3989   4.506   6.045   1.881
   10CHTO   C67 3990   4.482   6.185   1.903
   10CHTO  H124 3991   4.376   6.209   1.892
   10CHTO   C65 3992   4.528   6.223   2.047
   10CHTO  H122 3993   4.483   6.148   2.113
   10CHTO   O44 3994   4.477   6.353   2.082
   10CHTO  H102 3995   4.496   6.371   2.173
   10CHTO   C63 3996   4.683   6.203   2.057
   10CHTO  H120 3997   4.707   6.102   2.025
   10CHTO   N11 3998   4.740   6.205   2.196
   10CHTO  H108 3999   4.666   6.237   2.267
   10CHTO  H109 4000   4.825   6.269   2.201
   10CHTO   C61 4001   4.754   6.299   1.954
   10CHTO  H118 4002   4.858   6.263   1.950
   10CHTO   O40 4003   4.701   6.288   1.819
   10CHTO   C68 4004   4.558   6.270   1.793
   10CHTO  H125 4005   4.552   6.213   1.698
   10CHTO   C72 4006   4.491   6.407   1.766
   10CHTO   O48 4007   4.355   6.396   1.720
   10CHTO  H105 4008   4.354   6.358   1.635
   10CHTO   O38 4009   4.752   6.438   1.994
   10CHTO   C55 4010   4.867   6.516   1.953
   10CHTO  H112 4011   4.902   6.481   1.855
   10CHTO   C56 4012   4.983   6.507   2.063
   10CHTO  H113 4013   4.938   6.533   2.160
   10CHTO   O42 4014   5.030   6.372   2.077
   10CHTO  H100 4015   5.065   6.340   1.995
   10CHTO   C57 4016   5.103   6.604   2.030
   10CHTO  H114 4017   5.155   6.562   1.943
   10CHTO   N10 4018   5.204   6.615   2.139
   10CHTO  H106 4019   5.177   6.692   2.209
   10CHTO  H107 4020   5.213   6.521   2.191
   10CHTO   C58 4021   5.050   6.745   1.991
   10CHTO  H115 4022   5.013   6.797   2.082
   10CHTO   O37 4023   4.946   6.738   1.893
   10CHTO   C59 4024   4.829   6.665   1.934
   10CHTO  H116 4025   4.790   6.707   2.027
   10CHTO   C70 4026   4.723   6.683   1.825
   10CHTO   O46 4027   4.679   6.818   1.810
   10CHTO  H103 4028   4.630   6.844   1.886
   10CHTO   O39 4029   5.167   6.831   1.919
   10CHTO   C60 4030   5.159   6.972   1.945
   10CHTO  H117 4031   5.064   6.996   1.993
   10CHTO   C62 4032   5.273   7.016   2.042
   10CHTO  H119 4033   5.257   6.959   2.137
   10CHTO   O43 4034   5.401   6.977   1.988
   10CHTO  H101 4035   5.418   7.022   1.907
   10CHTO   C66 4036   5.262   7.173   2.071
   10CHTO  H123 4037   5.163   7.193   2.114
   10CHTO   N12 4038   5.359   7.221   2.174
   10CHTO  H110 4039   5.420   7.140   2.210
   10CHTO  H111 4040   5.420   7.301   2.135
   10CHTO   C69 4041   5.269   7.251   1.937
   10CHTO  H126 4042   5.369   7.234   1.890
   10CHTO   O41 4043   5.158   7.200   1.842
   10CHTO   C64 4044   5.166   7.053   1.813
   10CHTO  H121 4045   5.262   7.031   1.763
   10CHTO   C71 4046   5.052   7.014   1.716
   10CHTO   O47 4047   5.072   7.077   1.589
   10CHTO  H104 4048   5.003   7.051   1.530
   10CHTO   O34 4049   5.249   7.403   1.958
   10CHTO   C49 4050   5.330   7.528   1.925
   10CHTO   H91 4051   5.349   7.579   2.020
   10CHTO   C47 4052   5.246   7.619   1.833
   10CHTO   H89 4053   5.301   7.715   1.826
   10CHTO   O33 4054   5.119   7.643   1.896
   10CHTO   H70 4055   5.068   7.564   1.901
   10CHTO   C45 4056   5.235   7.551   1.687
   10CHTO   H87 4057   5.193   7.450   1.699
   10CHTO    N8 4058   5.145   7.627   1.597
   10CHTO   H75 4059   5.196   7.655   1.506
   10CHTO   H76 4060   5.057   7.569   1.573
   10CHTO   C43 4061   5.382   7.529   1.627
   10CHTO   H85 4062   5.369   7.477   1.532
   10CHTO   O29 4063   5.461   7.452   1.720
   10CHTO   C50 4064   5.467   7.493   1.858
   10CHTO   H92 4065   5.509   7.409   1.914
   10CHTO   C54 4066   5.571   7.606   1.881
   10CHTO   O36 4067   5.702   7.562   1.841
   10CHTO   H72 4068   5.706   7.555   1.747
   10CHTO   O27 4069   5.450   7.652   1.595
   10CHTO   C37 4070   5.477   7.764   1.509
   10CHTO   H79 4071   5.586   7.780   1.502
   10CHTO   C38 4072   5.427   7.739   1.363
   10CHTO   H80 4073   5.320   7.713   1.367
   10CHTO   O31 4074   5.500   7.627   1.309
   10CHTO   H68 4075   5.476   7.548   1.354
   10CHTO   C39 4076   5.445   7.867   1.272
   10CHTO   H81 4077   5.552   7.884   1.261
   10CHTO    N7 4078   5.388   7.852   1.134
   10CHTO   H73 4079   5.438   7.771   1.082
   10CHTO   H74 4080   5.282   7.832   1.139
   10CHTO   C40 4081   5.385   7.993   1.344
   10CHTO   H82 4082   5.276   7.989   1.345
   10CHTO   O26 4083   5.439   8.006   1.477
   10CHTO   C41 4084   5.412   7.894   1.565
   10CHTO   H83 4085   5.303   7.880   1.574
   10CHTO   C52 4086   5.468   7.930   1.705
   10CHTO   O35 4087   5.399   8.046   1.764
   10CHTO   H71 4088   5.436   8.065   1.848
   10CHTO   O28 4089   5.428   8.116   1.281
   10CHTO   C42 4090   5.350   8.239   1.299
   10CHTO   H84 4091   5.281   8.218   1.381
   10CHTO   C44 4092   5.261   8.278   1.177
   10CHTO   H86 4093   5.326   8.291   1.090
   10CHTO   O32 4094   5.173   8.167   1.152
   10CHTO   H69 4095   5.123   8.182   1.074
   10CHTO   C48 4096   5.183   8.414   1.201
   10CHTO   H90 4097   5.110   8.397   1.280
   10CHTO    N9 4098   5.103   8.454   1.080
   10CHTO   H77 4099   5.169   8.471   0.996
   10CHTO   H78 4100   5.047   8.544   1.102
   10CHTO   C51 4101   5.284   8.525   1.249
   10CHTO   H93 4102   5.354   8.546   1.168
   10CHTO   O30 4103   5.350   8.476   1.366
   10CHTO   C46 4104   5.438   8.360   1.342
   10CHTO   H88 4105   5.509   8.383   1.263
   10CHTO   C53 4106   5.514   8.335   1.475
   10CHTO   O72 4107   5.622   8.243   1.458
   10CHTO  H199 4108   5.666   8.232   1.540
   10CHTO   O22 4109   5.218   8.646   1.291
   10CHTO   C31 4110   5.289   8.775   1.313
   10CHTO   H59 4111   5.218   8.839   1.370
   10CHTO   C29 4112   5.419   8.766   1.396
   10CHTO   H57 4113   5.486   8.695   1.345
   10CHTO   O21 4114   5.385   8.708   1.524
   10CHTO   H37 4115   5.463   8.687   1.572
   10CHTO   C27 4116   5.493   8.905   1.413
   10CHTO   H55 4117   5.431   8.970   1.477
   10CHTO    N5 4118   5.627   8.892   1.477
   10CHTO   H43 4119   5.617   8.845   1.573
   10CHTO   H44 4120   5.692   8.833   1.413
   10CHTO   C25 4121   5.503   8.977   1.274
   10CHTO   H53 4122   5.573   8.922   1.209
   10CHTO   O17 4123   5.374   8.981   1.210
   10CHTO   C32 4124   5.316   8.853   1.180
   10CHTO   H60 4125   5.384   8.795   1.118
   10CHTO   C36 4126   5.188   8.886   1.100
   10CHTO   O25 4127   5.137   8.771   1.032
   10CHTO   H40 4128   5.056   8.794   0.989
   10CHTO   O15 4129   5.553   9.125   1.291
   10CHTO   C19 4130   5.558   9.237   1.198
   10CHTO   H47 4131   5.553   9.189   1.099
   10CHTO   C20 4132   5.439   9.337   1.211
   10CHTO   H48 4133   5.437   9.385   1.310
   10CHTO   O19 4134   5.317   9.263   1.195
   10CHTO   H35 4135   5.304   9.206   1.268
   10CHTO   C21 4136   5.449   9.453   1.102
   10CHTO   H49 4137   5.437   9.408   1.003
   10CHTO    N4 4138   5.342   9.555   1.115
   10CHTO   H41 4139   5.349   9.604   1.212
   10CHTO   H42 4140   5.352   9.630   1.038
   10CHTO   C22 4141   5.592   9.514   1.107
   10CHTO   H50 4142   5.605   9.566   1.202
   10CHTO   O14 4143   5.690   9.410   1.095
   10CHTO   C23 4144   5.692   9.315   1.202
   10CHTO   H51 4145   5.705   9.370   1.296
   10CHTO   C34 4146   5.816   9.226   1.181
   10CHTO   O23 4147   5.841   9.142   1.293
   10CHTO   H38 4148   5.918   9.090   1.276
   10CHTO   O16 4149   5.616   9.605   0.998
   10CHTO   C24 4150   5.766   9.663   0.995
   10CHTO   H52 4151   5.832   9.609   1.064
   10CHTO   C26 4152   5.766   9.812   1.032
   10CHTO   H54 4153   5.700   9.866   0.960
   10CHTO   O20 4154   5.711   9.827   1.164
   10CHTO   H36 4155   5.620   9.807   1.163
   10CHTO   C30 4156   5.910   9.871   1.023
   10CHTO   H58 4157   5.971   9.831   1.106
   10CHTO    N6 4158   5.911   0.019   1.040
   10CHTO   H45 4159   5.851   0.066   0.964
   10CHTO   H46 4160   5.872   0.045   1.137
   10CHTO   C33 4161   5.984   9.828   0.892
   10CHTO   H61 4162   5.948   9.887   0.806
   10CHTO   O18 4163   5.964   9.688   0.863
   10CHTO   C28 4164   5.827   9.646   0.853
   10CHTO   H56 4165   5.772   9.709   0.783
   10CHTO   C35 4166   5.826   9.500   0.802
   10CHTO   O24 4167   5.695   9.451   0.774
   10CHTO   H39 4168   5.646   9.442   0.853
   10CHTO    O9 4169   6.125   9.859   0.903
   10CHTO   C13 4170   6.218   9.808   0.782
   10CHTO   H26 4171   6.162   9.733   0.723
   10CHTO   C11 4172   6.349   9.747   0.846
   10CHTO   H24 4173   6.321   9.654   0.898
   10CHTO    O8 4174   6.403   9.837   0.944
   10CHTO    H3 4175   6.476   9.797   0.988
   10CHTO    C9 4176   6.447   9.712   0.731
   10CHTO   H22 4177   6.391   9.647   0.662
   10CHTO    N2 4178   6.564   9.630   0.773
   10CHTO   H10 4179   6.626   9.687   0.841
   10CHTO   H11 4180   6.530   9.539   0.820
   10CHTO    C7 4181   6.486   9.843   0.655
   10CHTO   H20 4182   6.545   9.807   0.568
   10CHTO    O4 4183   6.371   9.913   0.605
   10CHTO   C14 4184   6.249   9.927   0.681
   10CHTO   H27 4185   6.167   9.927   0.606
   10CHTO   C18 4186   6.246   0.066   0.750
   10CHTO   O13 4187   6.233   0.170   0.652
   10CHTO    H7 4188   6.231   0.253   0.695
   10CHTO    O2 4189   6.580   9.947   0.752
   10CHTO    C1 4190   6.665   0.044   0.687
   10CHTO   H14 4191   6.724   0.094   0.767
   10CHTO    C2 4192   6.585   0.155   0.608
   10CHTO   H15 4193   6.511   0.103   0.546
   10CHTO    O6 4194   6.520   0.236   0.706
   10CHTO    H1 4195   6.462   0.298   0.664
   10CHTO    C3 4196   6.680   0.245   0.516
   10CHTO   H16 4197   6.744   0.308   0.579
   10CHTO    N1 4198   6.599   0.336   0.428
   10CHTO    H8 4199   6.536   0.278   0.362
   10CHTO    H9 4200   6.665   0.399   0.369
   10CHTO    C4 4201   6.777   0.151   0.436
   10CHTO   H17 4202   6.717   0.087   0.370
   10CHTO    O1 4203   6.853   0.070   0.527
   10CHTO    C5 4204   6.772   9.974   0.598
   10CHTO   H18 4205   6.722   9.910   0.526
   10CHTO   C16 4206   6.867   9.888   0.685
   10CHTO   O11 4207   6.962   9.817   0.604
   10CHTO    H5 4208   7.018   9.767   0.660
   10CHTO    O3 4209   6.873   0.226   0.359
   10CHTO    C6 4210   6.924   0.158   0.240
   10CHTO   H19 4211   6.922   0.049   0.250
   10CHTO    C8 4212   6.841   0.196   0.113
   10CHTO   H21 4213   6.837   0.305   0.107
   10CHTO    O7 4214   6.708   0.144   0.128
   10CHTO    H2 4215   6.710   0.050   0.131
   10CHTO   C12 4216   6.911   0.142   4.022
   10CHTO   H25 4217   6.901   0.032   4.025
   10CHTO    N3 4218   6.839   0.189   3.897
   10CHTO   H12 4219   6.804   0.104   3.841
   10CHTO   H13 4220   6.757   0.255   3.921
   10CHTO   C15 4221   7.063   0.180   4.022
   10CHTO   H28 4222   7.078   0.287   4.011
   10CHTO   O10 4223   7.144   0.105   3.915
   10CHTO    H4 4224   7.117   0.134   3.830
   10CHTO    O5 4225   7.126   0.134   0.103
   10CHTO   C10 4226   7.073   0.198   0.221
   10CHTO   H23 4227   7.080   0.306   0.208
   10CHTO   C17 4228   7.161   0.160   0.341
   10CHTO   O12 4229   7.158   0.020   0.370
   10CHTO    H6 4230   7.215   0.002   0.442
   11CHTO  H203 4231   6.574   3.892   0.199
   11CHTO   O82 4232   6.564   3.890   0.293
   11CHTO  C123 4233   6.647   3.990   0.354
   11CHTO  H227 4234   6.747   3.985   0.308
   11CHTO   O77 4235   6.581   4.115   0.317
   11CHTO  C118 4236   6.648   4.233   0.363
   11CHTO  H222 4237   6.753   4.233   0.330
   11CHTO  C125 4238   6.575   4.358   0.301
   11CHTO   O84 4239   6.593   4.361   0.159
   11CHTO  H205 4240   6.682   4.379   0.138
   11CHTO  C114 4241   6.643   4.235   0.517
   11CHTO  H218 4242   6.538   4.235   0.549
   11CHTO  C116 4243   6.712   4.108   0.575
   11CHTO  H220 4244   6.822   4.114   0.555
   11CHTO   O79 4245   6.698   4.107   0.719
   11CHTO  H201 4246   6.746   4.177   0.757
   11CHTO  C120 4247   6.653   3.976   0.511
   11CHTO  H224 4248   6.550   3.964   0.551
   11CHTO   N21 4249   6.731   3.855   0.551
   11CHTO  H211 4250   6.691   3.814   0.643
   11CHTO  H212 4251   6.836   3.879   0.563
   11CHTO   O75 4252   6.707   4.358   0.557
   11CHTO  C112 4253   6.647   4.438   0.696
   11CHTO  H216 4254   6.732   4.467   0.759
   11CHTO   O73 4255   6.557   4.349   0.765
   11CHTO  C113 4256   6.505   4.404   0.887
   11CHTO  H217 4257   6.590   4.435   0.953
   11CHTO  C124 4258   6.429   4.294   0.962
   11CHTO   O83 4259   6.513   4.185   1.001
   11CHTO  H204 4260   6.542   4.138   0.926
   11CHTO  C109 4261   6.415   4.526   0.856
   11CHTO  H213 4262   6.330   4.488   0.797
   11CHTO  C110 4263   6.495   4.632   0.775
   11CHTO  H214 4264   6.568   4.678   0.842
   11CHTO   O78 4265   6.405   4.736   0.732
   11CHTO  H200 4266   6.373   4.784   0.806
   11CHTO  C111 4267   6.569   4.569   0.653
   11CHTO  H215 4268   6.493   4.539   0.578
   11CHTO   N19 4269   6.661   4.663   0.586
   11CHTO  H207 4270   6.739   4.694   0.654
   11CHTO  H208 4271   6.705   4.616   0.499
   11CHTO   O74 4272   6.365   4.584   0.980
   11CHTO  C115 4273   6.209   4.618   0.976
   11CHTO  H219 4274   6.176   4.645   0.876
   11CHTO   O76 4275   6.123   4.493   1.017
   11CHTO  C122 4276   5.981   4.513   1.025
   11CHTO  H226 4277   5.939   4.423   1.070
   11CHTO  C126 4278   5.920   4.520   0.879
   11CHTO   O85 4279   5.777   4.515   0.879
   11CHTO  H206 4280   5.748   4.430   0.907
   11CHTO  C121 4281   5.943   4.637   1.115
   11CHTO  H225 4282   5.835   4.658   1.101
   11CHTO   O81 4283   5.961   4.600   1.252
   11CHTO  H202 4284   5.926   4.666   1.309
   11CHTO  C119 4285   6.024   4.765   1.078
   11CHTO  H223 4286   5.993   4.787   0.976
   11CHTO  C117 4287   6.179   4.739   1.072
   11CHTO  H221 4288   6.227   4.712   1.166
   11CHTO   N20 4289   6.252   4.862   1.025
   11CHTO  H209 4290   6.358   4.845   1.026
   11CHTO  H210 4291   6.219   4.889   0.926
   11CHTO   O80 4292   5.973   4.899   1.155
   11CHTO  C103 4293   5.987   4.914   1.315
   11CHTO  H190 4294   5.950   4.825   1.366
   11CHTO  C101 4295   6.130   4.953   1.373
   11CHTO  H188 4296   6.178   5.021   1.302
   11CHTO   O68 4297   6.214   4.825   1.383
   11CHTO  H168 4298   6.302   4.847   1.406
   11CHTO   C99 4299   6.122   5.027   1.516
   11CHTO  H186 4300   6.088   4.954   1.592
   11CHTO   N17 4301   6.254   5.080   1.564
   11CHTO  H174 4302   6.244   5.119   1.664
   11CHTO  H175 4303   6.290   5.156   1.496
   11CHTO   C97 4304   6.012   5.137   1.512
   11CHTO  H184 4305   6.041   5.210   1.435
   11CHTO   O64 4306   5.888   5.072   1.479
   11CHTO  C104 4307   5.883   5.030   1.342
   11CHTO  H191 4308   5.903   5.113   1.274
   11CHTO  C108 4309   5.740   4.983   1.310
   11CHTO   O71 4310   5.647   5.091   1.325
   11CHTO  H171 4311   5.660   5.154   1.257
   11CHTO   O62 4312   5.991   5.205   1.638
   11CHTO   C91 4313   5.889   5.307   1.642
   11CHTO  H178 4314   5.799   5.265   1.596
   11CHTO   C92 4315   5.927   5.434   1.556
   11CHTO  H179 4316   5.953   5.404   1.454
   11CHTO   O66 4317   5.809   5.515   1.542
   11CHTO  H166 4318   5.744   5.470   1.491
   11CHTO   C93 4319   6.038   5.523   1.623
   11CHTO  H180 4320   6.023   5.627   1.589
   11CHTO   N16 4321   6.175   5.488   1.580
   11CHTO  H172 4322   6.198   5.386   1.608
   11CHTO  H173 4323   6.247   5.556   1.624
   11CHTO   C94 4324   6.025   5.520   1.781
   11CHTO  H181 4325   6.089   5.443   1.826
   11CHTO   O61 4326   5.890   5.488   1.820
   11CHTO   C95 4327   5.851   5.352   1.790
   11CHTO  H182 4328   5.900   5.286   1.862
   11CHTO  C106 4329   5.697   5.340   1.813
   11CHTO   O69 4330   5.656   5.383   1.943
   11CHTO  H169 4331   5.668   5.475   1.952
   11CHTO   O63 4332   6.059   5.661   1.841
   11CHTO   C96 4333   6.102   5.648   1.992
   11CHTO  H183 4334   6.129   5.545   2.012
   11CHTO   C98 4335   5.995   5.688   2.097
   11CHTO  H185 4336   5.960   5.790   2.077
   11CHTO   O67 4337   5.881   5.603   2.080
   11CHTO  H167 4338   5.903   5.513   2.097
   11CHTO  C102 4339   6.052   5.676   2.247
   11CHTO  H189 4340   6.061   5.568   2.267
   11CHTO   N18 4341   5.961   5.729   2.352
   11CHTO  H176 4342   5.866   5.677   2.348
   11CHTO  H177 4343   6.005   5.716   2.450
   11CHTO  C105 4344   6.195   5.737   2.257
   11CHTO  H192 4345   6.187   5.846   2.260
   11CHTO   O65 4346   6.282   5.703   2.148
   11CHTO  C100 4347   6.231   5.734   2.018
   11CHTO  H187 4348   6.204   5.841   2.015
   11CHTO  C107 4349   6.341   5.710   1.912
   11CHTO   O70 4350   6.450   5.800   1.931
   11CHTO  H170 4351   6.516   5.783   1.867
   11CHTO   O57 4352   6.256   5.677   2.399
   11CHTO   C85 4353   6.365   5.736   2.474
   11CHTO  H157 4354   6.379   5.665   2.558
   11CHTO   C83 4355   6.323   5.871   2.541
   11CHTO  H155 4356   6.236   5.852   2.603
   11CHTO   O56 4357   6.282   5.967   2.441
   11CHTO  H135 4358   6.249   6.044   2.483
   11CHTO   C81 4359   6.440   5.920   2.630
   11CHTO  H153 4360   6.463   5.840   2.702
   11CHTO   N14 4361   6.404   6.036   2.716
   11CHTO  H141 4362   6.317   6.012   2.774
   11CHTO  H142 4363   6.485   6.059   2.782
   11CHTO   C79 4364   6.569   5.944   2.542
   11CHTO  H151 4365   6.651   5.967   2.610
   11CHTO   O52 4366   6.606   5.821   2.471
   11CHTO   C86 4367   6.499   5.758   2.393
   11CHTO  H158 4368   6.484   5.825   2.306
   11CHTO   C90 4369   6.551   5.624   2.336
   11CHTO   O60 4370   6.661   5.643   2.246
   11CHTO  H138 4371   6.736   5.672   2.294
   11CHTO   O50 4372   6.559   6.052   2.447
   11CHTO   C73 4373   6.547   6.192   2.417
   11CHTO  H145 4374   6.483   6.242   2.492
   11CHTO   C74 4375   6.482   6.210   2.276
   11CHTO  H146 4376   6.385   6.157   2.278
   11CHTO   O54 4377   6.451   6.349   2.258
   11CHTO  H133 4378   6.383   6.376   2.317
   11CHTO   C75 4379   6.579   6.152   2.165
   11CHTO  H147 4380   6.592   6.044   2.183
   11CHTO   N13 4381   6.525   6.163   2.027
   11CHTO  H139 4382   6.427   6.207   2.027
   11CHTO  H140 4383   6.590   6.222   1.965
   11CHTO   C76 4384   6.723   6.221   2.182
   11CHTO  H148 4385   6.710   6.327   2.163
   11CHTO   O49 4386   6.774   6.203   2.318
   11CHTO   C77 4387   6.687   6.261   2.417
   11CHTO  H149 4388   6.674   6.368   2.397
   11CHTO   C88 4389   6.754   6.255   2.555
   11CHTO   O58 4390   6.882   6.330   2.557
   11CHTO  H136 4391   6.920   6.325   2.643
   11CHTO   O51 4392   6.834   6.156   2.077
   11CHTO   C78 4393   6.922   6.032   2.126
   11CHTO  H150 4394   6.879   5.986   2.218
   11CHTO   C80 4395   7.067   6.078   2.157
   11CHTO  H152 4396   7.105   6.135   2.070
   11CHTO   O55 4397   7.062   6.167   2.270
   11CHTO  H134 4398   7.020   6.247   2.247
   11CHTO   C84 4399   7.163   5.955   2.185
   11CHTO  H156 4400   7.131   5.908   2.278
   11CHTO   N15 4401   7.307   5.995   2.204
   11CHTO  H143 4402   7.319   6.101   2.196
   11CHTO  H144 4403   7.342   5.963   2.300
   11CHTO   C87 4404   7.149   5.850   2.072
   11CHTO  H159 4405   7.191   5.888   1.978
   11CHTO   O53 4406   7.004   5.814   2.055
   11CHTO   C82 4407   6.922   5.925   2.015
   11CHTO  H154 4408   6.957   5.967   1.921
   11CHTO   C89 4409   6.778   5.874   1.991
   11CHTO   O59 4410   6.773   5.777   1.886
   11CHTO  H137 4411   6.790   5.818   1.804
   11CHTO   O45 4412   7.222   5.712   2.113
   11CHTO   C67 4413   7.274   5.633   2.004
   11CHTO  H124 4414   7.244   5.677   1.909
   11CHTO   C65 4415   7.430   5.630   2.011
   11CHTO  H122 4416   7.457   5.652   2.115
   11CHTO   O44 4417   7.475   5.739   1.929
   11CHTO  H102 4418   7.567   5.753   1.940
   11CHTO   C63 4419   7.492   5.487   1.984
   11CHTO  H120 4420   7.480   5.427   2.075
   11CHTO   N11 4421   7.641   5.483   1.966
   11CHTO  H108 4422   7.689   5.535   2.047
   11CHTO  H109 4423   7.675   5.382   1.963
   11CHTO   C61 4424   7.411   5.413   1.872
   11CHTO  H118 4425   7.454   5.312   1.864
   11CHTO   O40 4426   7.271   5.398   1.906
   11CHTO   C68 4427   7.212   5.487   2.006
   11CHTO  H125 4428   7.227   5.442   2.105
   11CHTO   C72 4429   7.059   5.490   1.980
   11CHTO   O48 4430   7.023   5.537   1.849
   11CHTO  H105 4431   7.052   5.476   1.785
   11CHTO   O38 4432   7.413   5.480   1.744
   11CHTO   C55 4433   7.458   5.408   1.627
   11CHTO  H112 4434   7.533   5.333   1.656
   11CHTO   C56 4435   7.517   5.516   1.526
   11CHTO  H113 4436   7.445   5.599   1.523
   11CHTO   O42 4437   7.639   5.570   1.581
   11CHTO  H100 4438   7.620   5.618   1.659
   11CHTO   C57 4439   7.540   5.459   1.380
   11CHTO  H114 4440   7.625   5.390   1.385
   11CHTO   N10 4441   7.576   5.564   1.281
   11CHTO  H106 4442   7.488   5.608   1.237
   11CHTO  H107 4443   7.634   5.643   1.328
   11CHTO   C58 4444   7.415   5.381   1.335
   11CHTO  H115 4445   7.329   5.451   1.327
   11CHTO   O37 4446   7.384   5.278   1.430
   11CHTO   C59 4447   7.341   5.329   1.557
   11CHTO  H116 4448   7.255   5.394   1.544
   11CHTO   C70 4449   7.295   5.207   1.639
   11CHTO   O46 4450   7.397   5.109   1.662
   11CHTO  H103 4451   7.361   5.038   1.711
   11CHTO   O39 4452   7.440   5.304   1.190
   11CHTO   C60 4453   7.320   5.274   1.116
   11CHTO  H117 4454   7.250   5.221   1.181
   11CHTO   C62 4455   7.249   5.402   1.061
   11CHTO  H119 4456   7.214   5.459   1.150
   11CHTO   O43 4457   7.344   5.483   0.989
   11CHTO  H101 4458   7.409   5.518   1.047
   11CHTO   C66 4459   7.121   5.361   0.972
   11CHTO  H123 4460   7.056   5.299   1.032
   11CHTO   N12 4461   7.041   5.480   0.934
   11CHTO  H110 4462   7.007   5.531   1.023
   11CHTO  H111 4463   6.958   5.450   0.872
   11CHTO   C69 4464   7.170   5.277   0.851
   11CHTO  H126 4465   7.245   5.334   0.793
   11CHTO   O41 4466   7.235   5.147   0.907
   11CHTO   C64 4467   7.356   5.175   1.000
   11CHTO  H121 4468   7.437   5.221   0.939
   11CHTO   C71 4469   7.410   5.041   1.054
   11CHTO   O47 4470   7.310   4.967   1.125
   11CHTO  H104 4471   7.347   4.886   1.156
   11CHTO   O34 4472   7.053   5.237   0.752
   11CHTO   C49 4473   6.925   5.162   0.711
   11CHTO   H91 4474   6.954   5.060   0.687
   11CHTO   C47 4475   6.865   5.231   0.586
   11CHTO   H89 4476   6.777   5.171   0.554
   11CHTO   O33 4477   6.963   5.229   0.481
   11CHTO   H70 4478   6.977   5.141   0.451
   11CHTO   C45 4479   6.819   5.380   0.627
   11CHTO   H87 4480   6.906   5.433   0.667
   11CHTO    N8 4481   6.768   5.456   0.509
   11CHTO   H75 4482   6.669   5.494   0.528
   11CHTO   H76 4483   6.835   5.537   0.486
   11CHTO   C43 4484   6.714   5.374   0.749
   11CHTO   H85 4485   6.703   5.477   0.783
   11CHTO   O29 4486   6.761   5.289   0.856
   11CHTO   C50 4487   6.820   5.161   0.825
   11CHTO   H92 4488   6.872   5.127   0.915
   11CHTO   C54 4489   6.714   5.049   0.802
   11CHTO   O36 4490   6.632   5.030   0.917
   11CHTO   H72 4491   6.569   4.962   0.899
   11CHTO   O27 4492   6.582   5.332   0.709
   11CHTO   C37 4493   6.460   5.311   0.781
   11CHTO   H79 4494   6.475   5.236   0.860
   11CHTO   C38 4495   6.409   5.441   0.851
   11CHTO   H80 4496   6.398   5.519   0.775
   11CHTO   O31 4497   6.508   5.483   0.947
   11CHTO   H68 4498   6.485   5.566   0.984
   11CHTO   C39 4499   6.271   5.416   0.923
   11CHTO   H81 4500   6.292   5.353   1.009
   11CHTO    N7 4501   6.205   5.541   0.976
   11CHTO   H73 4502   6.191   5.533   1.083
   11CHTO   H74 4503   6.265   5.629   0.954
   11CHTO   C40 4504   6.169   5.336   0.832
   11CHTO   H82 4505   6.114   5.402   0.764
   11CHTO   O26 4506   6.232   5.227   0.763
   11CHTO   C41 4507   6.350   5.261   0.685
   11CHTO   H83 4508   6.325   5.341   0.612
   11CHTO   C52 4509   6.393   5.136   0.605
   11CHTO   O35 4510   6.290   5.092   0.511
   11CHTO   H71 4511   6.319   5.016   0.465
   11CHTO   O28 4512   6.079   5.263   0.917
   11CHTO   C42 4513   5.939   5.240   0.883
   11CHTO   H84 4514   5.924   5.288   0.786
   11CHTO   C44 4515   5.838   5.309   0.981
   11CHTO   H86 4516   5.862   5.278   1.083
   11CHTO   O32 4517   5.861   5.452   0.973
   11CHTO   H69 4518   5.839   5.484   0.888
   11CHTO   C48 4519   5.687   5.271   0.952
   11CHTO   H90 4520   5.657   5.318   0.858
   11CHTO    N9 4521   5.595   5.326   1.057
   11CHTO   H77 4522   5.493   5.301   1.033
   11CHTO   H78 4523   5.622   5.287   1.154
   11CHTO   C51 4524   5.675   5.115   0.938
   11CHTO   H93 4525   5.703   5.071   1.033
   11CHTO   O30 4526   5.761   5.073   0.832
   11CHTO   C46 4527   5.905   5.089   0.866
   11CHTO   H88 4528   5.926   5.037   0.959
   11CHTO   C53 4529   5.988   5.025   0.752
   11CHTO   O72 4530   5.967   4.883   0.745
   11CHTO  H199 4531   6.018   4.848   0.675
   11CHTO   O22 4532   5.543   5.072   0.898
   11CHTO   C31 4533   5.494   4.941   0.946
   11CHTO   H59 4534   5.579   4.893   1.000
   11CHTO   C29 4535   5.377   4.950   1.046
   11CHTO   H57 4536   5.292   4.997   0.993
   11CHTO   O21 4537   5.414   5.040   1.152
   11CHTO   H37 4538   5.340   5.056   1.208
   11CHTO   C27 4539   5.334   4.807   1.098
   11CHTO   H55 4540   5.417   4.766   1.157
   11CHTO    N5 4541   5.213   4.812   1.184
   11CHTO   H43 4542   5.229   4.879   1.267
   11CHTO   H44 4543   5.190   4.713   1.221
   11CHTO   C25 4544   5.314   4.711   0.975
   11CHTO   H53 4545   5.225   4.744   0.918
   11CHTO   O17 4546   5.428   4.714   0.886
   11CHTO   C32 4547   5.455   4.843   0.831
   11CHTO   H60 4548   5.366   4.881   0.781
   11CHTO   C36 4549   5.566   4.828   0.723
   11CHTO   O25 4550   5.688   4.777   0.777
   11CHTO   H40 4551   5.727   4.841   0.834
   11CHTO   O15 4552   5.295   4.568   1.019
   11CHTO   C19 4553   5.248   4.432   0.998
   11CHTO   H47 4554   5.322   4.372   1.052
   11CHTO   C20 4555   5.106   4.404   1.056
   11CHTO   H48 4556   5.029   4.467   1.008
   11CHTO   O19 4557   5.112   4.437   1.196
   11CHTO   H35 4558   5.026   4.430   1.234
   11CHTO   C21 4559   5.065   4.252   1.035
   11CHTO   H49 4560   5.131   4.190   1.096
   11CHTO    N4 4561   4.926   4.223   1.081
   11CHTO   H41 4562   4.904   4.118   1.067
   11CHTO   H42 4563   4.855   4.282   1.024
   11CHTO   C22 4564   5.089   4.211   0.887
   11CHTO   H50 4565   5.016   4.263   0.824
   11CHTO   O14 4566   5.223   4.245   0.846
   11CHTO   C23 4567   5.254   4.385   0.850
   11CHTO   H51 4568   5.181   4.437   0.787
   11CHTO   C34 4569   5.392   4.404   0.785
   11CHTO   O23 4570   5.496   4.332   0.851
   11CHTO   H38 4571   5.512   4.369   0.935
   11CHTO   O16 4572   5.077   4.068   0.870
   11CHTO   C24 4573   5.106   4.018   0.720
   11CHTO   H52 4574   5.159   4.093   0.661
   11CHTO   C26 4575   4.974   3.983   0.650
   11CHTO   H54 4576   4.922   3.904   0.709
   11CHTO   O20 4577   4.889   4.099   0.647
   11CHTO   H36 4578   4.929   4.168   0.597
   11CHTO   C30 4579   5.002   3.927   0.506
   11CHTO   H58 4580   5.037   4.010   0.443
   11CHTO    N6 4581   4.878   3.877   0.441
   11CHTO   H45 4582   4.834   3.798   0.500
   11CHTO   H46 4583   4.806   3.957   0.431
   11CHTO   C33 4584   5.115   3.819   0.505
   11CHTO   H61 4585   5.075   3.723   0.540
   11CHTO   O18 4586   5.226   3.854   0.591
   11CHTO   C28 4587   5.196   3.892   0.725
   11CHTO   H56 4588   5.142   3.812   0.776
   11CHTO   C35 4589   5.329   3.918   0.802
   11CHTO   O24 4590   5.411   4.019   0.743
   11CHTO   H39 4591   5.444   3.989   0.661
   11CHTO    O9 4592   5.159   3.795   0.370
   11CHTO   C13 4593   5.264   3.911   0.313
   11CHTO   H26 4594   5.264   3.997   0.384
   11CHTO   C11 4595   5.221   3.956   0.168
   11CHTO   H24 4596   5.119   3.998   0.175
   11CHTO    O8 4597   5.214   3.840   0.083
   11CHTO    H3 4598   5.299   3.802   0.072
   11CHTO    C9 4599   5.317   4.069   0.120
   11CHTO   H22 4600   5.294   4.156   0.184
   11CHTO    N2 4601   5.285   4.119   4.024
   11CHTO   H10 4602   5.308   4.042   3.952
   11CHTO   H11 4603   5.181   4.147   4.018
   11CHTO    C7 4604   5.469   4.030   0.148
   11CHTO   H20 4605   5.496   4.095   0.235
   11CHTO    O4 4606   5.484   3.892   0.188
   11CHTO   C14 4607   5.415   3.858   0.310
   11CHTO   H27 4608   5.470   3.907   0.393
   11CHTO   C18 4609   5.428   3.705   0.332
   11CHTO   O13 4610   5.376   3.629   0.222
   11CHTO    H7 4611   5.282   3.638   0.218
   11CHTO    O2 4612   5.577   4.061   0.023
   11CHTO    C1 4613   5.684   4.151   0.060
   11CHTO   H14 4614   5.712   4.132   0.166
   11CHTO    C2 4615   5.646   4.304   0.044
   11CHTO   H15 4616   5.608   4.316   3.982
   11CHTO    O6 4617   5.541   4.337   0.137
   11CHTO    H1 4618   5.462   4.291   0.115
   11CHTO    C3 4619   5.773   4.399   0.067
   11CHTO   H16 4620   5.799   4.395   0.174
   11CHTO    N1 4621   5.744   4.543   0.035
   11CHTO    H8 4622   5.831   4.603   0.055
   11CHTO    H9 4623   5.716   4.552   3.972
   11CHTO    C4 4624   5.899   4.345   4.031
   11CHTO   H17 4625   5.888   4.365   3.925
   11CHTO    O1 4626   5.918   4.204   0.014
   11CHTO    C5 4627   5.810   4.119   4.015
   11CHTO   H18 4628   5.786   4.135   3.910
   11CHTO   C16 4629   5.864   3.975   4.034
   11CHTO   O11 4630   5.778   3.876   3.977
   11CHTO    H5 4631   5.698   3.870   4.026
   11CHTO    O3 4632   6.020   4.405   0.043
   11CHTO    C6 4633   6.132   4.422   3.992
   11CHTO   H19 4634   6.114   4.377   3.894
   11CHTO    C8 4635   6.159   4.575   3.973
   11CHTO   H21 4636   6.166   4.621   0.031
   11CHTO    O7 4637   6.047   4.631   3.903
   11CHTO    H2 4638   5.971   4.629   3.957
   11CHTO   C12 4639   6.295   4.602   3.896
   11CHTO   H25 4640   6.280   4.566   3.792
   11CHTO    N3 4641   6.328   4.748   3.888
   11CHTO   H12 4642   6.333   4.779   3.784
   11CHTO   H13 4643   6.255   4.808   3.941
   11CHTO   C15 4644   6.410   4.517   3.962
   11CHTO   H28 4645   6.435   4.553   0.022
   11CHTO   O10 4646   6.536   4.512   3.879
   11CHTO    H4 4647   6.574   4.598   3.873
   11CHTO    O5 4648   6.373   4.378   3.967
   11CHTO   C10 4649   6.259   4.353   0.010
   11CHTO   H23 4650   6.279   4.392   0.110
   11CHTO   C17 4651   6.243   4.201   0.022
   11CHTO   O12 4652   6.355   4.141   0.087
   11CHTO    H6 4653   6.343   4.048   0.092
   12CHTO  H203 4654   4.691   1.234   0.681
   12CHTO   O82 4655   4.768   1.287   0.674
   12CHTO  C123 4656   4.876   1.214   0.614
   12CHTO  H227 4657   4.962   1.281   0.601
   12CHTO   O77 4658   4.907   1.111   0.713
   12CHTO  C118 4659   5.024   1.035   0.682
   12CHTO  H222 4660   5.111   1.103   0.674
   12CHTO  C125 4661   5.049   0.934   0.801
   12CHTO   O84 4662   5.080   1.004   0.921
   12CHTO  H205 4663   5.094   0.943   0.991
   12CHTO  C114 4664   5.007   0.959   0.549
   12CHTO  H218 4665   4.930   0.882   0.562
   12CHTO  C116 4666   4.960   1.053   0.433
   12CHTO  H220 4667   5.046   1.118   0.402
   12CHTO   O79 4668   4.928   0.972   0.318
   12CHTO  H201 4669   4.907   1.027   0.245
   12CHTO  C120 4670   4.838   1.143   0.478
   12CHTO  H224 4671   4.752   1.075   0.493
   12CHTO   N21 4672   4.799   1.240   0.372
   12CHTO  H211 4673   4.756   1.329   0.416
   12CHTO  H212 4674   4.729   1.194   0.303
   12CHTO   O75 4675   5.136   0.897   0.529
   12CHTO  C112 4676   5.141   0.771   0.424
   12CHTO  H216 4677   5.102   0.804   0.327
   12CHTO   O73 4678   5.063   0.664   0.480
   12CHTO  C113 4679   5.060   0.547   0.396
   12CHTO  H217 4680   5.027   0.576   0.294
   12CHTO  C124 4681   4.957   0.448   0.451
   12CHTO   O83 4682   4.823   0.499   0.448
   12CHTO  H204 4683   4.815   0.570   0.508
   12CHTO  C109 4684   5.202   0.485   0.389
   12CHTO  H213 4685   5.231   0.460   0.492
   12CHTO  C110 4686   5.300   0.590   0.328
   12CHTO  H214 4687   5.273   0.606   0.223
   12CHTO   O78 4688   5.434   0.538   0.331
   12CHTO  H200 4689   5.442   0.465   0.273
   12CHTO  C111 4690   5.291   0.725   0.406
   12CHTO  H215 4691   5.334   0.710   0.506
   12CHTO   N19 4692   5.370   0.834   0.342
   12CHTO  H207 4693   5.332   0.854   0.243
   12CHTO  H208 4694   5.366   0.923   0.402
   12CHTO   O74 4695   5.201   0.362   0.310
   12CHTO  C115 4696   5.309   0.252   0.359
   12CHTO  H219 4697   5.402   0.300   0.390
   12CHTO   O76 4698   5.259   0.173   0.487
   12CHTO  C122 4699   5.134   0.103   0.467
   12CHTO  H226 4700   5.053   0.174   0.482
   12CHTO  C126 4701   5.119   9.996   0.580
   12CHTO   O85 4702   5.122   0.052   0.711
   12CHTO  H206 4703   5.207   0.086   0.729
   12CHTO  C121 4704   5.122   0.035   0.324
   12CHTO  H225 4705   5.076   9.935   0.336
   12CHTO   O81 4706   5.034   0.109   0.239
   12CHTO  H202 4707   5.068   0.195   0.223
   12CHTO  C119 4708   5.264   0.017   0.260
   12CHTO  H223 4709   5.321   9.961   0.334
   12CHTO  C117 4710   5.337   0.155   0.237
   12CHTO  H221 4711   5.302   0.210   0.150
   12CHTO   N20 4712   5.484   0.135   0.213
   12CHTO  H209 4713   5.513   0.032   0.226
   12CHTO  H210 4714   5.544   0.199   0.277
   12CHTO   O80 4715   5.265   9.920   0.140
   12CHTO  C103 4716   5.318   9.775   0.159
   12CHTO  H190 4717   5.413   9.776   0.212
   12CHTO  C101 4718   5.219   9.676   0.232
   12CHTO  H188 4719   5.119   9.687   0.189
   12CHTO   O68 4720   5.211   9.715   0.383
   12CHTO  H168 4721   5.175   9.801   0.392
   12CHTO   C99 4722   5.265   9.524   0.215
   12CHTO  H186 4723   5.361   9.509   0.267
   12CHTO   N17 4724   5.168   9.424   0.273
   12CHTO  H174 4725   5.074   9.428   0.220
   12CHTO  H175 4726   5.211   9.325   0.270
   12CHTO   C97 4727   5.294   9.495   0.065
   12CHTO  H184 4728   5.199   9.504   0.009
   12CHTO   O64 4729   5.393   9.588   0.018
   12CHTO  C104 4730   5.347   9.724   0.012
   12CHTO  H191 4731   5.257   9.735   3.992
   12CHTO  C108 4732   5.457   9.804   3.982
   12CHTO   O71 4733   5.413   9.935   3.943
   12CHTO  H171 4734   5.483   9.981   3.901
   12CHTO   O62 4735   5.352   9.365   0.044
   12CHTO   C91 4736   5.375   9.320   3.950
   12CHTO  H178 4737   5.385   9.408   3.885
   12CHTO   C92 4738   5.249   9.241   3.899
   12CHTO  H179 4739   5.211   9.180   3.982
   12CHTO   O66 4740   5.146   9.338   3.871
   12CHTO  H166 4741   5.066   9.294   3.848
   12CHTO   C93 4742   5.278   9.150   3.773
   12CHTO  H180 4743   5.298   9.217   3.687
   12CHTO   N16 4744   5.162   9.066   3.732
   12CHTO  H172 4745   5.136   8.998   3.812
   12CHTO  H173 4746   5.186   9.011   3.642
   12CHTO   C94 4747   5.406   9.066   3.803
   12CHTO  H181 4748   5.398   9.012   3.898
   12CHTO   O61 4749   5.515   9.159   3.816
   12CHTO   C95 4750   5.509   9.236   3.937
   12CHTO  H182 4751   5.518   9.169   4.022
   12CHTO  C106 4752   5.636   9.329   3.939
   12CHTO   O69 4753   5.650   9.395   0.025
   12CHTO  H169 4754   5.582   9.458   0.036
   12CHTO   O63 4755   5.446   8.965   3.687
   12CHTO   C96 4756   5.559   8.866   3.735
   12CHTO  H183 4757   5.581   8.885   3.841
   12CHTO   C98 4758   5.692   8.881   3.657
   12CHTO  H185 4759   5.674   8.862   3.550
   12CHTO   O67 4760   5.736   9.018   3.666
   12CHTO  H167 4761   5.810   9.032   3.610
   12CHTO  C102 4762   5.804   8.782   3.714
   12CHTO  H189 4763   5.842   8.831   3.805
   12CHTO   N18 4764   5.923   8.767   3.626
   12CHTO  H176 4765   5.893   8.725   3.531
   12CHTO  H177 4766   5.996   8.703   3.673
   12CHTO  C105 4767   5.742   8.645   3.757
   12CHTO  H192 4768   5.805   8.563   3.722
   12CHTO   O65 4769   5.610   8.620   3.702
   12CHTO  C100 4770   5.506   8.718   3.722
   12CHTO  H187 4771   5.443   8.713   3.632
   12CHTO  C107 4772   5.419   8.674   3.842
   12CHTO   O70 4773   5.304   8.758   3.860
   12CHTO  H170 4774   5.332   8.843   3.887
   12CHTO   O57 4775   5.746   8.647   3.921
   12CHTO   C85 4776   5.740   8.523   3.993
   12CHTO  H157 4777   5.691   8.449   3.925
   12CHTO   C83 4778   5.643   8.539   0.074
   12CHTO  H155 4779   5.544   8.565   0.036
   12CHTO   O56 4780   5.686   8.649   0.156
   12CHTO  H135 4781   5.624   8.665   0.224
   12CHTO   C81 4782   5.632   8.403   0.149
   12CHTO  H153 4783   5.600   8.327   0.077
   12CHTO   N14 4784   5.526   8.402   0.252
   12CHTO  H141 4785   5.515   8.303   0.293
   12CHTO  H142 4786   5.552   8.469   0.331
   12CHTO   C79 4787   5.774   8.360   0.203
   12CHTO  H151 4788   5.764   8.260   0.245
   12CHTO   O52 4789   5.869   8.349   0.091
   12CHTO   C86 4790   5.878   8.469   0.007
   12CHTO  H158 4791   5.926   8.544   0.074
   12CHTO   C90 4792   5.978   8.444   3.933
   12CHTO   O60 4793   6.111   8.425   3.982
   12CHTO  H138 4794   6.118   8.343   4.027
   12CHTO   O50 4795   5.829   8.446   0.304
   12CHTO   C73 4796   5.824   8.465   0.446
   12CHTO  H145 4797   5.732   8.420   0.487
   12CHTO   C74 4798   5.825   8.617   0.481
   12CHTO  H146 4799   5.738   8.662   0.431
   12CHTO   O54 4800   5.801   8.629   0.623
   12CHTO  H133 4801   5.796   8.720   0.647
   12CHTO   C75 4802   5.961   8.680   0.433
   12CHTO  H147 4803   5.966   8.672   0.323
   12CHTO   N13 4804   5.973   8.825   0.463
   12CHTO  H139 4805   6.068   8.862   0.427
   12CHTO  H140 4806   5.894   8.879   0.414
   12CHTO   C76 4807   6.085   8.596   0.492
   12CHTO  H148 4808   6.087   8.611   0.600
   12CHTO   O49 4809   6.070   8.453   0.463
   12CHTO   C77 4810   5.947   8.397   0.514
   12CHTO  H149 4811   5.942   8.413   0.622
   12CHTO   C88 4812   5.947   8.245   0.494
   12CHTO   O58 4813   6.052   8.183   0.574
   12CHTO  H136 4814   6.051   8.090   0.560
   12CHTO   O51 4815   6.223   8.642   0.420
   12CHTO   C78 4816   6.351   8.545   0.440
   12CHTO  H150 4817   6.321   8.438   0.433
   12CHTO   C80 4818   6.417   8.570   0.577
   12CHTO  H152 4819   6.437   8.679   0.588
   12CHTO   O55 4820   6.323   8.531   0.678
   12CHTO  H134 4821   6.355   8.553   0.763
   12CHTO   C84 4822   6.554   8.491   0.592
   12CHTO  H156 4823   6.531   8.384   0.590
   12CHTO   N15 4824   6.624   8.519   0.722
   12CHTO  H143 4825   6.714   8.462   0.727
   12CHTO  H144 4826   6.561   8.491   0.804
   12CHTO   C87 4827   6.644   8.523   0.470
   12CHTO  H159 4828   6.671   8.629   0.472
   12CHTO   O53 4829   6.566   8.491   0.341
   12CHTO   C82 4830   6.449   8.572   0.324
   12CHTO  H154 4831   6.476   8.677   0.319
   12CHTO   C89 4832   6.389   8.534   0.186
   12CHTO   O59 4833   6.285   8.623   0.144
   12CHTO  H137 4834   6.210   8.613   0.200
   12CHTO   O45 4835   6.787   8.435   0.473
   12CHTO   C67 4836   6.776   8.301   0.424
   12CHTO  H124 4837   6.674   8.264   0.435
   12CHTO   C65 4838   6.815   8.297   0.273
   12CHTO  H122 4839   6.760   8.378   0.226
   12CHTO   O44 4840   6.772   8.172   0.216
   12CHTO  H102 4841   6.786   8.173   0.123
   12CHTO   C63 4842   6.967   8.333   0.258
   12CHTO  H120 4843   6.984   8.428   0.308
   12CHTO   N11 4844   7.012   8.362   0.119
   12CHTO  H108 4845   6.949   8.436   0.074
   12CHTO  H109 4846   7.113   8.397   0.119
   12CHTO   C61 4847   7.053   8.226   0.335
   12CHTO  H118 4848   7.155   8.268   0.339
   12CHTO   O40 4849   7.011   8.209   0.474
   12CHTO   C68 4850   6.868   8.205   0.510
   12CHTO  H125 4851   6.863   8.241   0.615
   12CHTO   C72 4852   6.820   8.058   0.511
   12CHTO   O48 4853   6.687   8.044   0.562
   12CHTO  H105 4854   6.662   7.953   0.562
   12CHTO   O38 4855   7.056   8.097   0.270
   12CHTO   C55 4856   7.183   8.027   0.266
   12CHTO  H112 4857   7.236   8.044   0.361
   12CHTO   C56 4858   7.269   8.074   0.140
   12CHTO  H113 4859   7.202   8.072   0.053
   12CHTO   O42 4860   7.310   8.211   0.156
   12CHTO  H100 4861   7.364   8.221   0.232
   12CHTO   C57 4862   7.395   7.981   0.115
   12CHTO  H114 4863   7.467   8.001   0.195
   12CHTO   N10 4864   7.463   8.011   4.027
   12CHTO  H106 4865   7.511   7.923   3.987
   12CHTO  H107 4866   7.536   8.089   4.040
   12CHTO   C58 4867   7.353   7.832   0.124
   12CHTO  H115 4868   7.286   7.807   0.039
   12CHTO   O37 4869   7.285   7.805   0.247
   12CHTO   C59 4870   7.159   7.873   0.258
   12CHTO  H116 4871   7.096   7.849   0.172
   12CHTO   C70 4872   7.088   7.824   0.385
   12CHTO   O46 4873   7.059   7.684   0.381
   12CHTO  H103 4874   7.018   7.658   0.462
   12CHTO   O39 4875   7.481   7.736   0.122
   12CHTO   C60 4876   7.467   7.620   0.038
   12CHTO  H117 4877   7.362   7.591   0.033
   12CHTO   C62 4878   7.515   7.650   3.933
   12CHTO  H119 4879   7.448   7.729   3.894
   12CHTO   O43 4880   7.650   7.703   3.937
   12CHTO  H101 4881   7.709   7.639   3.970
   12CHTO   C66 4882   7.501   7.518   3.843
   12CHTO  H123 4883   7.397   7.485   3.846
   12CHTO   N12 4884   7.532   7.543   3.700
   12CHTO  H110 4885   7.465   7.618   3.660
   12CHTO  H111 4886   7.524   7.451   3.644
   12CHTO   C69 4887   7.588   7.406   3.906
   12CHTO  H126 4888   7.695   7.437   3.908
   12CHTO   O41 4889   7.537   7.380   0.009
   12CHTO   C64 4890   7.544   7.500   0.100
   12CHTO  H121 4891   7.650   7.530   0.115
   12CHTO   C71 4892   7.485   7.457   0.235
   12CHTO   O47 4893   7.504   7.556   0.336
   12CHTO  H104 4894   7.467   7.526   0.417
   12CHTO   O34 4895   7.578   7.272   3.826
   12CHTO   C49 4896   7.678   7.155   3.829
   12CHTO   H91 4897   7.770   7.190   3.780
   12CHTO   C47 4898   7.616   7.039   3.747
   12CHTO   H89 4899   7.697   6.962   3.743
   12CHTO   O33 4900   7.587   7.081   3.613
   12CHTO   H70 4901   7.522   7.149   3.613
   12CHTO   C45 4902   7.484   6.981   3.821
   12CHTO   H87 4903   7.397   7.036   3.783
   12CHTO    N8 4904   7.468   6.838   3.784
   12CHTO   H75 4905   7.549   6.780   3.826
   12CHTO   H76 4906   7.374   6.801   3.820
   12CHTO   C43 4907   7.487   7.013   3.979
   12CHTO   H85 4908   7.448   7.115   3.989
   12CHTO   O29 4909   7.621   7.004   4.029
   12CHTO   C50 4910   7.711   7.102   3.972
   12CHTO   H92 4911   7.712   7.188   4.040
   12CHTO   C54 4912   7.856   7.048   3.984
   12CHTO   O36 4913   7.874   6.920   3.922
   12CHTO   H72 4914   7.867   6.929   3.829
   12CHTO   O27 4915   7.398   6.933   0.017
   12CHTO   C37 4916   7.326   6.935   0.141
   12CHTO   H79 4917   7.342   6.840   0.195
   12CHTO   C38 4918   7.374   7.050   0.236
   12CHTO   H80 4919   7.371   7.144   0.179
   12CHTO   O31 4920   7.510   7.021   0.272
   12CHTO   H68 4921   7.547   7.092   0.320
   12CHTO   C39 4922   7.281   7.062   0.363
   12CHTO   H81 4923   7.294   6.971   0.421
   12CHTO    N7 4924   7.317   7.177   0.452
   12CHTO   H73 4925   7.306   7.270   0.398
   12CHTO   H74 4926   7.253   7.177   0.539
   12CHTO   C40 4927   7.130   7.068   0.318
   12CHTO   H82 4928   7.110   7.163   0.267
   12CHTO   O26 4929   7.099   6.955   0.235
   12CHTO   C41 4930   7.175   6.950   0.111
   12CHTO   H83 4931   7.158   7.043   0.055
   12CHTO   C52 4932   7.120   6.832   0.026
   12CHTO   O35 4933   7.131   6.702   0.094
   12CHTO   H71 4934   7.222   6.679   0.104
   12CHTO   O28 4935   7.038   7.054   0.428
   12CHTO   C42 4936   6.902   7.110   0.425
   12CHTO   H84 4937   6.846   7.046   0.493
   12CHTO   C44 4938   6.826   7.106   0.288
   12CHTO   H86 4939   6.884   7.161   0.214
   12CHTO   O32 4940   6.820   6.968   0.245
   12CHTO   H69 4941   6.771   6.917   0.306
   12CHTO   C48 4942   6.681   7.169   0.295
   12CHTO   H90 4943   6.618   7.100   0.352
   12CHTO    N9 4944   6.617   7.178   0.159
   12CHTO   H77 4945   6.610   7.080   0.115
   12CHTO   H78 4946   6.518   7.222   0.168
   12CHTO   C51 4947   6.682   7.307   0.370
   12CHTO   H93 4948   6.729   7.382   0.305
   12CHTO   O30 4949   6.749   7.296   0.496
   12CHTO   C46 4950   6.896   7.255   0.483
   12CHTO   H88 4951   6.946   7.324   0.415
   12CHTO   C53 4952   6.960   7.262   0.623
   12CHTO   O72 4953   6.957   7.396   0.675
   12CHTO  H199 4954   6.869   7.421   0.695
   12CHTO   O22 4955   6.546   7.346   0.402
   12CHTO   C31 4956   6.502   7.482   0.436
   12CHTO   H59 4957   6.393   7.474   0.456
   12CHTO   C29 4958   6.567   7.543   0.562
   12CHTO   H57 4959   6.674   7.560   0.542
   12CHTO   O21 4960   6.559   7.446   0.668
   12CHTO   H37 4961   6.607   7.475   0.743
   12CHTO   C27 4962   6.499   7.680   0.600
   12CHTO   H55 4963   6.393   7.660   0.626
   12CHTO    N5 4964   6.563   7.747   0.716
   12CHTO   H43 4965   6.561   7.682   0.802
   12CHTO   H44 4966   6.665   7.772   0.692
   12CHTO   C25 4967   6.496   7.774   0.474
   12CHTO   H53 4968   6.598   7.810   0.453
   12CHTO   O17 4969   6.447   7.706   0.355
   12CHTO   C32 4970   6.517   7.585   0.320
   12CHTO   H60 4971   6.623   7.607   0.305
   12CHTO   C36 4972   6.458   7.532   0.187
   12CHTO   O25 4973   6.487   7.621   0.079
   12CHTO   H40 4974   6.452   7.587   4.040
   12CHTO   O15 4975   6.401   7.898   0.501
   12CHTO   C19 4976   6.284   7.954   0.435
   12CHTO   H47 4977   6.255   8.038   0.500
   12CHTO   C20 4978   6.312   8.009   0.292
   12CHTO   H48 4979   6.349   7.930   0.224
   12CHTO   O19 4980   6.417   8.107   0.306
   12CHTO   H35 4981   6.445   8.138   0.221
   12CHTO   C21 4982   6.182   8.072   0.228
   12CHTO   H49 4983   6.154   8.160   0.286
   12CHTO    N4 4984   6.204   8.119   0.088
   12CHTO   H41 4985   6.181   8.225   0.080
   12CHTO   H42 4986   6.142   8.065   0.018
   12CHTO   C22 4987   6.064   7.971   0.240
   12CHTO   H50 4988   6.085   7.886   0.175
   12CHTO   O14 4989   6.048   7.926   0.375
   12CHTO   C23 4990   6.161   7.858   0.430
   12CHTO   H51 4991   6.181   7.769   0.368
   12CHTO   C34 4992   6.125   7.808   0.571
   12CHTO   O23 4993   6.019   7.712   0.568
   12CHTO   H38 4994   5.939   7.753   0.543
   12CHTO   O16 4995   5.939   8.033   0.206
   12CHTO   C24 4996   5.830   7.931   0.146
   12CHTO   H52 4997   5.853   7.827   0.173
   12CHTO   C26 4998   5.826   7.945   4.034
   12CHTO   H54 4999   5.806   8.052   4.008
   12CHTO   O20 5000   5.955   7.909   3.981
   12CHTO   H36 5001   5.958   7.926   3.889
   12CHTO   C30 5002   5.712   7.858   3.972
   12CHTO   H58 5003   5.738   7.752   3.984
   12CHTO    N6 5004   5.697   7.880   3.825
   12CHTO   H45 5005   5.713   7.788   3.771
   12CHTO   H46 5006   5.766   7.955   3.789
   12CHTO   C33 5007   5.577   7.879   0.007
   12CHTO   H61 5008   5.540   7.981   4.026
   12CHTO   O18 5009   5.597   7.869   0.149
   12CHTO   C28 5010   5.691   7.963   0.204
   12CHTO   H56 5011   5.663   8.065   0.177
   12CHTO   C35 5012   5.691   7.951   0.358
   12CHTO   O24 5013   5.565   7.988   0.416
   12CHTO   H39 5014   5.500   7.925   0.393
   12CHTO    O9 5015   5.472   7.790   4.002
   12CHTO   C13 5016   5.484   7.632   0.013
   12CHTO   H26 5017   5.553   7.628   0.099
   12CHTO   C11 5018   5.536   7.543   3.933
   12CHTO   H24 5019   5.641   7.571   3.913
   12CHTO    O8 5020   5.461   7.570   3.814
   12CHTO    H3 5021   5.370   7.547   3.826
   12CHTO    C9 5022   5.531   7.394   3.978
   12CHTO   H22 5023   5.587   7.390   0.032
   12CHTO    N2 5024   5.607   7.303   3.888
   12CHTO   H10 5025   5.637   7.353   3.798
   12CHTO   H11 5026   5.548   7.215   3.865
   12CHTO    C7 5027   5.380   7.353   4.009
   12CHTO   H20 5028   5.389   7.296   0.064
   12CHTO    O4 5029   5.293   7.467   4.029
   12CHTO   C14 5030   5.344   7.577   0.067
   12CHTO   H27 5031   5.358   7.541   0.171
   12CHTO   C18 5032   5.234   7.686   0.071
   12CHTO   O13 5033   5.113   7.638   0.130
   12CHTO    H7 5034   5.049   7.707   0.129
   12CHTO    O2 5035   5.312   7.258   3.894
   12CHTO    C1 5036   5.230   7.152   3.946
   12CHTO   H14 5037   5.210   7.169   0.014
   12CHTO    C2 5038   5.296   7.010   3.928
   12CHTO   H15 5039   5.329   7.005   3.823
   12CHTO    O6 5040   5.411   7.001   4.014
   12CHTO    H1 5041   5.478   7.061   3.985
   12CHTO    C3 5042   5.193   6.891   3.960
   12CHTO   H16 5043   5.176   6.887   0.028
   12CHTO    N1 5044   5.246   6.756   3.919
   12CHTO    H8 5045   5.268   6.756   3.813
   12CHTO    H9 5046   5.336   6.734   3.974
   12CHTO    C4 5047   5.052   6.919   3.896
   12CHTO   H17 5048   5.058   6.907   3.787
   12CHTO    O1 5049   5.006   7.052   3.927
   12CHTO    C5 5050   5.091   7.156   3.875
   12CHTO   H18 5051   5.108   7.140   3.769
   12CHTO   C16 5052   5.018   7.292   3.893
   12CHTO   O11 5053   4.991   7.322   4.031
   12CHTO    H5 5054   5.071   7.340   0.035
   12CHTO    O3 5055   4.951   6.831   3.951
   12CHTO    C6 5056   4.831   6.816   3.868
   12CHTO   H19 5057   4.820   6.896   3.794
   12CHTO    C8 5058   4.834   6.680   3.792
   12CHTO   H21 5059   4.847   6.600   3.865
   12CHTO    O7 5060   4.948   6.683   3.703
   12CHTO    H2 5061   4.958   6.600   3.660
   12CHTO   C12 5062   4.698   6.657   3.714
   12CHTO   H25 5063   4.694   6.734   3.635
   12CHTO    N3 5064   4.697   6.524   3.645
   12CHTO   H12 5065   4.705   6.444   3.717
   12CHTO   H13 5066   4.606   6.513   3.587
   12CHTO   C15 5067   4.577   6.678   3.812
   12CHTO   H28 5068   4.569   6.597   3.884
   12CHTO   O10 5069   4.441   6.691   3.736
   12CHTO    H4 5070   4.447   6.758   3.670
   12CHTO    O5 5071   4.586   6.805   3.880
   12CHTO   C10 5072   4.705   6.820   3.959
   12CHTO   H23 5073   4.709   6.739   4.031
   12CHTO   C17 5074   4.694   6.951   4.040
   12CHTO   O12 5075   4.683   7.067   3.956
   12CHTO    H6 5076   4.763   7.080   3.909
   13CHTO  H203 5077   7.684   3.363   2.168
   13CHTO   O82 5078   7.597   3.398   2.166
   13CHTO  C123 5079   7.602   3.538   2.135
   13CHTO  H227 5080   7.650   3.551   2.037
   13CHTO   O77 5081   7.460   3.574   2.126
   13CHTO  C118 5082   7.438   3.711   2.091
   13CHTO  H222 5083   7.493   3.734   1.998
   13CHTO  C125 5084   7.285   3.733   2.065
   13CHTO   O84 5085   7.243   3.667   1.945
   13CHTO  H205 5086   7.280   3.710   1.870
   13CHTO  C114 5087   7.489   3.802   2.204
   13CHTO  H218 5088   7.435   3.777   2.295
   13CHTO  C116 5089   7.641   3.777   2.231
   13CHTO  H220 5090   7.699   3.819   2.146
   13CHTO   O79 5091   7.680   3.852   2.347
   13CHTO  H201 5092   7.675   3.944   2.330
   13CHTO  C120 5093   7.673   3.623   2.248
   13CHTO  H224 5094   7.633   3.594   2.347
   13CHTO   N21 5095   7.820   3.598   2.251
   13CHTO  H211 5096   7.859   3.584   2.151
   13CHTO  H212 5097   7.871   3.679   2.301
   13CHTO   O75 5098   7.461   3.937   2.162
   13CHTO  C112 5099   7.394   4.028   2.279
   13CHTO  H216 5100   7.442   4.004   2.375
   13CHTO   O73 5101   7.254   3.999   2.280
   13CHTO  C113 5102   7.176   4.074   2.375
   13CHTO  H217 5103   7.217   4.057   2.477
   13CHTO  C124 5104   7.032   4.021   2.374
   13CHTO   O83 5105   7.022   3.885   2.416
   13CHTO  H204 5106   7.042   3.879   2.508
   13CHTO  C109 5107   7.184   4.225   2.340
   13CHTO  H213 5108   7.143   4.236   2.239
   13CHTO  C110 5109   7.333   4.270   2.342
   13CHTO  H214 5110   7.371   4.261   2.444
   13CHTO   O78 5111   7.341   4.410   2.306
   13CHTO  H200 5112   7.310   4.424   2.219
   13CHTO  C111 5113   7.418   4.181   2.246
   13CHTO  H215 5114   7.383   4.198   2.143
   13CHTO   N19 5115   7.563   4.212   2.248
   13CHTO  H207 5116   7.579   4.314   2.216
   13CHTO  H208 5117   7.603   4.199   2.348
   13CHTO   O74 5118   7.102   4.304   2.433
   13CHTO  C115 5119   7.029   4.425   2.359
   13CHTO  H219 5120   7.099   4.482   2.297
   13CHTO   O76 5121   6.918   4.372   2.256
   13CHTO  C122 5122   6.798   4.325   2.320
   13CHTO  H226 5123   6.823   4.234   2.374
   13CHTO  C126 5124   6.696   4.282   2.208
   13CHTO   O85 5125   6.659   4.391   2.123
   13CHTO  H206 5126   6.597   4.361   2.059
   13CHTO  C121 5127   6.734   4.432   2.418
   13CHTO  H225 5128   6.635   4.461   2.378
   13CHTO   O81 5129   6.710   4.372   2.546
   13CHTO  H202 5130   6.791   4.348   2.586
   13CHTO  C119 5131   6.822   4.560   2.430
   13CHTO  H223 5132   6.829   4.602   2.329
   13CHTO  C117 5133   6.969   4.520   2.471
   13CHTO  H221 5134   6.977   4.464   2.564
   13CHTO   N20 5135   7.055   4.641   2.490
   13CHTO  H209 5136   7.063   4.697   2.398
   13CHTO  H210 5137   7.153   4.611   2.524
   13CHTO   O80 5138   6.751   4.681   2.510
   13CHTO  C103 5139   6.617   4.750   2.450
   13CHTO  H190 5140   6.613   4.855   2.480
   13CHTO  C101 5141   6.599   4.743   2.293
   13CHTO  H188 5142   6.620   4.642   2.259
   13CHTO   O68 5143   6.703   4.838   2.227
   13CHTO  H168 5144   6.701   4.829   2.134
   13CHTO   C99 5145   6.449   4.777   2.249
   13CHTO  H186 5146   6.427   4.883   2.274
   13CHTO   N17 5147   6.424   4.763   2.102
   13CHTO  H174 5148   6.495   4.823   2.046
   13CHTO  H175 5149   6.323   4.791   2.078
   13CHTO   C97 5150   6.351   4.692   2.334
   13CHTO  H184 5151   6.369   4.586   2.310
   13CHTO   O64 5152   6.372   4.720   2.473
   13CHTO  C104 5153   6.499   4.676   2.523
   13CHTO  H191 5154   6.510   4.569   2.512
   13CHTO  C108 5155   6.506   4.703   2.674
   13CHTO   O71 5156   6.408   4.626   2.745
   13CHTO  H171 5157   6.414   4.645   2.837
   13CHTO   O62 5158   6.212   4.726   2.314
   13CHTO   C91 5159   6.116   4.619   2.325
   13CHTO  H178 5160   6.168   4.526   2.350
   13CHTO   C92 5161   6.051   4.597   2.184
   13CHTO  H179 5162   6.017   4.695   2.147
   13CHTO   O66 5163   6.154   4.555   2.092
   13CHTO  H166 5164   6.190   4.472   2.119
   13CHTO   C93 5165   5.932   4.493   2.185
   13CHTO  H180 5166   5.975   4.394   2.201
   13CHTO   N16 5167   5.859   4.485   2.055
   13CHTO  H172 5168   5.901   4.551   1.982
   13CHTO  H173 5169   5.753   4.505   2.068
   13CHTO   C94 5170   5.834   4.525   2.305
   13CHTO  H181 5171   5.784   4.621   2.292
   13CHTO   O61 5172   5.909   4.533   2.427
   13CHTO   C95 5173   6.002   4.642   2.431
   13CHTO  H182 5174   5.950   4.735   2.409
   13CHTO  C106 5175   6.059   4.654   2.576
   13CHTO   O69 5176   5.955   4.688   2.669
   13CHTO  H169 5177   5.991   4.693   2.755
   13CHTO   O63 5178   5.726   4.408   2.323
   13CHTO   C96 5179   5.597   4.460   2.394
   13CHTO  H183 5180   5.574   4.558   2.353
   13CHTO   C98 5181   5.610   4.475   2.549
   13CHTO  H185 5182   5.697   4.537   2.574
   13CHTO   O67 5183   5.495   4.547   2.595
   13CHTO  H167 5184   5.504   4.566   2.687
   13CHTO  C102 5185   5.616   4.332   2.623
   13CHTO  H189 5186   5.586   4.352   2.727
   13CHTO   N18 5187   5.752   4.272   2.633
   13CHTO  H176 5188   5.826   4.337   2.589
   13CHTO  H177 5189   5.755   4.175   2.584
   13CHTO  C105 5190   5.511   4.235   2.560
   13CHTO  H192 5191   5.562   4.157   2.502
   13CHTO   O65 5192   5.417   4.299   2.472
   13CHTO  C100 5193   5.477   4.361   2.357
   13CHTO  H187 5194   5.517   4.280   2.293
   13CHTO  C107 5195   5.368   4.434   2.276
   13CHTO   O70 5196   5.268   4.343   2.229
   13CHTO  H170 5197   5.203   4.390   2.181
   13CHTO   O57 5198   5.440   4.170   2.683
   13CHTO   C85 5199   5.355   4.056   2.665
   13CHTO  H157 5200   5.385   4.007   2.569
   13CHTO   C83 5201   5.207   4.103   2.644
   13CHTO  H155 5202   5.202   4.160   2.551
   13CHTO   O56 5203   5.171   4.194   2.750
   13CHTO  H135 5204   5.222   4.272   2.744
   13CHTO   C81 5205   5.113   3.979   2.631
   13CHTO  H153 5206   5.146   3.920   2.545
   13CHTO   N14 5207   4.973   4.016   2.599
   13CHTO  H141 5208   4.929   4.069   2.680
   13CHTO  H142 5209   4.916   3.927   2.579
   13CHTO   C79 5210   5.126   3.889   2.760
   13CHTO  H151 5211   5.065   3.800   2.742
   13CHTO   O52 5212   5.264   3.844   2.777
   13CHTO   C86 5213   5.360   3.954   2.786
   13CHTO  H158 5214   5.333   4.006   2.881
   13CHTO   C90 5215   5.503   3.899   2.808
   13CHTO   O60 5216   5.547   3.817   2.699
   13CHTO  H138 5217   5.497   3.738   2.696
   13CHTO   O50 5218   5.079   3.952   2.880
   13CHTO   C73 5219   4.999   3.927   2.996
   13CHTO  H145 5220   4.966   3.823   2.998
   13CHTO   C74 5221   4.874   4.020   2.994
   13CHTO  H146 5222   4.818   3.998   2.902
   13CHTO   O54 5223   4.788   3.981   3.103
   13CHTO  H133 5224   4.753   3.895   3.088
   13CHTO   C75 5225   4.920   4.170   3.001
   13CHTO  H147 5226   4.977   4.193   2.909
   13CHTO   N13 5227   4.810   4.269   3.002
   13CHTO  H139 5228   4.751   4.259   2.912
   13CHTO  H140 5229   4.746   4.252   3.087
   13CHTO   C76 5230   5.020   4.192   3.124
   13CHTO  H148 5231   4.962   4.186   3.217
   13CHTO   O49 5232   5.127   4.093   3.126
   13CHTO   C77 5233   5.082   3.956   3.124
   13CHTO  H149 5234   5.021   3.937   3.212
   13CHTO   C88 5235   5.205   3.865   3.137
   13CHTO   O58 5236   5.166   3.727   3.143
   13CHTO  H136 5237   5.242   3.673   3.149
   13CHTO   O51 5238   5.098   4.332   3.108
   13CHTO   C78 5239   5.158   4.380   3.243
   13CHTO  H150 5240   5.146   4.304   3.323
   13CHTO   C80 5241   5.089   4.510   3.289
   13CHTO  H152 5242   5.100   4.586   3.208
   13CHTO   O55 5243   4.948   4.482   3.304
   13CHTO  H134 5244   4.934   4.421   3.373
   13CHTO   C84 5245   5.153   4.566   3.423
   13CHTO  H156 5246   5.130   4.494   3.502
   13CHTO   N15 5247   5.093   4.697   3.465
   13CHTO  H143 5248   5.138   4.730   3.557
   13CHTO  H144 5249   5.110   4.771   3.390
   13CHTO   C87 5250   5.307   4.575   3.410
   13CHTO  H159 5251   5.336   4.658   3.345
   13CHTO   O53 5252   5.363   4.441   3.355
   13CHTO   C82 5253   5.309   4.406   3.227
   13CHTO  H154 5254   5.327   4.486   3.156
   13CHTO   C89 5255   5.386   4.281   3.174
   13CHTO   O59 5256   5.382   4.172   3.266
   13CHTO  H137 5257   5.429   4.099   3.231
   13CHTO   O45 5258   5.374   4.599   3.558
   13CHTO   C67 5259   5.517   4.581   3.565
   13CHTO  H124 5260   5.550   4.518   3.482
   13CHTO   C65 5261   5.591   4.719   3.556
   13CHTO  H122 5262   5.522   4.793   3.595
   13CHTO   O44 5263   5.612   4.743   3.416
   13CHTO  H102 5264   5.680   4.688   3.383
   13CHTO   C63 5265   5.717   4.727   3.651
   13CHTO  H120 5266   5.683   4.747   3.753
   13CHTO   N11 5267   5.809   4.844   3.628
   13CHTO  H108 5268   5.882   4.849   3.706
   13CHTO  H109 5269   5.753   4.935   3.626
   13CHTO   C61 5270   5.788   4.587   3.656
   13CHTO  H118 5271   5.873   4.596   3.726
   13CHTO   O40 5272   5.701   4.484   3.710
   13CHTO   C68 5273   5.556   4.501   3.696
   13CHTO  H125 5274   5.519   4.555   3.785
   13CHTO   C72 5275   5.490   4.360   3.698
   13CHTO   O48 5276   5.528   4.276   3.588
   13CHTO  H105 5277   5.494   4.312   3.508
   13CHTO   O38 5278   5.835   4.543   3.526
   13CHTO   C55 5279   5.950   4.456   3.516
   13CHTO  H112 5280   5.952   4.423   3.411
   13CHTO   C56 5281   5.948   4.332   3.616
   13CHTO  H113 5282   5.943   4.373   3.718
   13CHTO   O42 5283   5.827   4.257   3.595
   13CHTO  H100 5284   5.819   4.190   3.660
   13CHTO   C57 5285   6.076   4.243   3.598
   13CHTO  H114 5286   6.070   4.198   3.498
   13CHTO   N10 5287   6.084   4.130   3.695
   13CHTO  H106 5288   6.039   4.158   3.789
   13CHTO  H107 5289   6.187   4.101   3.712
   13CHTO   C58 5290   6.202   4.333   3.604
   13CHTO  H115 5291   6.215   4.370   3.708
   13CHTO   O37 5292   6.193   4.445   3.515
   13CHTO   C59 5293   6.083   4.534   3.536
   13CHTO  H116 5294   6.088   4.576   3.637
   13CHTO   C70 5295   6.095   4.649   3.435
   13CHTO   O46 5296   6.213   4.728   3.455
   13CHTO  H103 5297   6.289   4.678   3.431
   13CHTO   O39 5298   6.329   4.255   3.556
   13CHTO   C60 5299   6.447   4.272   3.636
   13CHTO  H117 5300   6.430   4.348   3.712
   13CHTO   C62 5301   6.485   4.139   3.707
   13CHTO  H119 5302   6.400   4.116   3.776
   13CHTO   O43 5303   6.496   4.033   3.610
   13CHTO  H101 5304   6.512   3.952   3.654
   13CHTO   C66 5305   6.618   4.162   3.793
   13CHTO  H123 5306   6.602   4.245   3.862
   13CHTO   N12 5307   6.652   4.046   3.879
   13CHTO  H110 5308   6.668   3.958   3.817
   13CHTO  H111 5309   6.738   4.068   3.939
   13CHTO   C69 5310   6.732   4.204   3.696
   13CHTO  H126 5311   6.751   4.124   3.621
   13CHTO   O41 5312   6.690   4.336   3.624
   13CHTO   C64 5313   6.563   4.324   3.546
   13CHTO  H121 5314   6.578   4.252   3.463
   13CHTO   C71 5315   6.529   4.462   3.483
   13CHTO   O47 5316   6.509   4.563   3.582
   13CHTO  H104 5317   6.489   4.645   3.540
   13CHTO   O34 5318   6.859   4.231   3.769
   13CHTO   C49 5319   6.990   4.293   3.775
   13CHTO   H91 5320   7.054   4.238   3.706
   13CHTO   C47 5321   7.039   4.278   3.921
   13CHTO   H89 5322   7.141   4.323   3.921
   13CHTO   O33 5323   7.051   4.139   3.957
   13CHTO   H70 5324   6.967   4.097   3.956
   13CHTO   C45 5325   6.939   4.358   4.021
   13CHTO   H87 5326   6.855   4.291   0.005
   13CHTO    N8 5327   7.012   4.387   0.107
   13CHTO   H75 5328   7.092   4.457   0.088
   13CHTO   H76 5329   6.944   4.429   0.179
   13CHTO   C43 5330   6.873   4.485   3.945
   13CHTO   H85 5331   6.783   4.445   3.898
   13CHTO   O29 5332   6.966   4.536   3.848
   13CHTO   C50 5333   6.988   4.445   3.739
   13CHTO   H92 5334   6.910   4.461   3.664
   13CHTO   C54 5335   7.117   4.486   3.665
   13CHTO   O36 5336   7.106   4.618   3.609
   13CHTO   H72 5337   7.044   4.619   3.539
   13CHTO   O27 5338   6.826   4.589   4.032
   13CHTO   C37 5339   6.752   4.708   0.023
   13CHTO   H79 5340   6.644   4.688   0.018
   13CHTO   C38 5341   6.785   4.753   0.168
   13CHTO   H80 5342   6.895   4.760   0.178
   13CHTO   O31 5343   6.738   4.650   0.257
   13CHTO   H68 5344   6.790   4.572   0.247
   13CHTO   C39 5345   6.720   4.892   0.203
   13CHTO   H81 5346   6.613   4.876   0.208
   13CHTO    N7 5347   6.764   4.947   0.336
   13CHTO   H73 5348   6.734   4.879   0.415
   13CHTO   H74 5349   6.871   4.960   0.338
   13CHTO   C40 5350   6.746   4.997   0.089
   13CHTO   H82 5351   6.849   5.032   0.092
   13CHTO   O26 5352   6.712   4.943   4.001
   13CHTO   C41 5353   6.786   4.823   3.964
   13CHTO   H83 5354   6.894   4.843   3.968
   13CHTO   C52 5355   6.749   4.787   3.818
   13CHTO   O35 5356   6.797   4.888   3.724
   13CHTO   H71 5357   6.772   4.862   3.637
   13CHTO   O28 5358   6.657   5.109   0.102
   13CHTO   C42 5359   6.688   5.237   0.037
   13CHTO   H84 5360   6.756   5.212   3.997
   13CHTO   C44 5361   6.763   5.340   0.127
   13CHTO   H86 5362   6.700   5.364   0.213
   13CHTO   O32 5363   6.883   5.276   0.176
   13CHTO   H69 5364   6.861   5.208   0.236
   13CHTO   C48 5365   6.794   5.474   0.049
   13CHTO   H90 5366   6.862   5.451   4.008
   13CHTO    N9 5367   6.865   5.576   0.135
   13CHTO   H77 5368   6.960   5.602   0.091
   13CHTO   H78 5369   6.804   5.664   0.149
   13CHTO   C51 5370   6.659   5.528   4.029
   13CHTO   H93 5371   6.592   5.551   0.070
   13CHTO   O30 5372   6.605   5.428   3.941
   13CHTO   C46 5373   6.562   5.303   4.013
   13CHTO   H88 5374   6.490   5.328   0.050
   13CHTO   C53 5375   6.495   5.212   3.907
   13CHTO   O72 5376   6.432   5.097   3.965
   13CHTO  H199 5377   6.357   5.124   4.015
   13CHTO   O22 5378   6.679   5.643   3.945
   13CHTO   C31 5379   6.564   5.726   3.907
   13CHTO   H59 5380   6.474   5.662   3.918
   13CHTO   C29 5381   6.543   5.849   3.998
   13CHTO   H57 5382   6.633   5.912   3.992
   13CHTO   O21 5383   6.532   5.805   0.094
   13CHTO   H37 5384   6.613   5.766   0.123
   13CHTO   C27 5385   6.417   5.934   3.953
   13CHTO   H55 5386   6.327   5.873   3.968
   13CHTO    N5 5387   6.402   6.059   4.031
   13CHTO   H43 5388   6.485   6.125   4.013
   13CHTO   H44 5389   6.309   6.108   4.005
   13CHTO   C25 5390   6.426   5.964   3.799
   13CHTO   H53 5391   6.510   6.033   3.780
   13CHTO   O17 5392   6.449   5.842   3.725
   13CHTO   C32 5393   6.568   5.770   3.758
   13CHTO   H60 5394   6.655   5.834   3.742
   13CHTO   C36 5395   6.574   5.649   3.661
   13CHTO   O25 5396   6.697   5.577   3.667
   13CHTO   H40 5397   6.705   5.534   3.750
   13CHTO   O15 5398   6.292   6.027   3.742
   13CHTO   C19 5399   6.178   6.117   3.755
   13CHTO   H47 5400   6.193   6.166   3.853
   13CHTO   C20 5401   6.167   6.226   3.645
   13CHTO   H48 5402   6.150   6.182   3.545
   13CHTO   O19 5403   6.292   6.297   3.642
   13CHTO   H35 5404   6.360   6.242   3.609
   13CHTO   C21 5405   6.046   6.325   3.675
   13CHTO   H49 5406   6.071   6.383   3.765
   13CHTO    N4 5407   6.025   6.425   3.566
   13CHTO   H41 5408   6.033   6.525   3.605
   13CHTO   H42 5409   5.928   6.412   3.520
   13CHTO   C22 5410   5.917   6.245   3.709
   13CHTO   H50 5411   5.876   6.202   3.617
   13CHTO   O14 5412   5.942   6.141   3.804
   13CHTO   C23 5413   6.041   6.044   3.766
   13CHTO   H51 5414   6.010   6.000   3.669
   13CHTO   C34 5415   6.039   5.933   3.872
   13CHTO   O23 5416   6.111   5.817   3.829
   13CHTO   H38 5417   6.064   5.775   3.759
   13CHTO   O16 5418   5.821   6.329   3.775
   13CHTO   C24 5419   5.668   6.279   3.761
   13CHTO   H52 5420   5.661   6.183   3.709
   13CHTO   C26 5421   5.587   6.385   3.685
   13CHTO   H54 5422   5.596   6.482   3.739
   13CHTO   O20 5423   5.645   6.402   3.554
   13CHTO   H36 5424   5.602   6.472   3.508
   13CHTO   C30 5425   5.436   6.347   3.680
   13CHTO   H58 5426   5.422   6.255   3.622
   13CHTO    N6 5427   5.355   6.452   3.612
   13CHTO   H45 5428   5.361   6.545   3.666
   13CHTO   H46 5429   5.251   6.421   3.607
   13CHTO   C33 5430   5.385   6.317   3.825
   13CHTO   H61 5431   5.391   6.409   3.884
   13CHTO   O18 5432   5.470   6.218   3.887
   13CHTO   C28 5433   5.606   6.258   3.902
   13CHTO   H56 5434   5.612   6.352   3.958
   13CHTO   C35 5435   5.681   6.150   3.985
   13CHTO   O24 5436   5.682   6.021   3.925
   13CHTO   H39 5437   5.733   6.022   3.847
   13CHTO    O9 5438   5.247   6.276   3.827
   13CHTO   C13 5439   5.165   6.335   3.950
   13CHTO   H26 5440   5.203   6.437   3.971
   13CHTO   C11 5441   5.177   6.240   0.035
   13CHTO   H24 5442   5.283   6.236   0.064
   13CHTO    O8 5443   5.137   6.106   0.003
   13CHTO    H3 5444   5.046   6.103   4.019
   13CHTO    C9 5445   5.097   6.306   0.151
   13CHTO   H22 5446   5.144   6.404   0.167
   13CHTO    N2 5447   5.113   6.236   0.281
   13CHTO   H10 5448   5.066   6.293   0.359
   13CHTO   H11 5449   5.218   6.223   0.303
   13CHTO    C7 5450   4.947   6.329   0.109
   13CHTO   H20 5451   4.909   6.398   0.187
   13CHTO    O4 5452   4.934   6.397   4.023
   13CHTO   C14 5453   5.013   6.359   3.909
   13CHTO   H27 5454   5.011   6.445   3.839
   13CHTO   C18 5455   4.945   6.239   3.836
   13CHTO   O13 5456   4.999   6.219   3.705
   13CHTO    H7 5457   4.956   6.147   3.664
   13CHTO    O2 5458   4.854   6.189   0.108
   13CHTO    C1 5459   4.732   6.200   0.185
   13CHTO   H14 5460   4.729   6.299   0.236
   13CHTO    C2 5461   4.716   6.086   0.294
   13CHTO   H15 5462   4.722   5.991   0.240
   13CHTO    O6 5463   4.825   6.095   0.387
   13CHTO    H1 5464   4.823   6.178   0.433
   13CHTO    C3 5465   4.574   6.099   0.368
   13CHTO   H16 5466   4.574   6.191   0.428
   13CHTO    N1 5467   4.549   5.985   0.463
   13CHTO    H8 5468   4.627   5.982   0.538
   13CHTO    H9 5469   4.453   5.997   0.511
   13CHTO    C4 5470   4.457   6.115   0.264
   13CHTO   H17 5471   4.439   6.019   0.215
   13CHTO    O1 5472   4.488   6.216   0.167
   13CHTO    C5 5473   4.608   6.196   0.091
   13CHTO   H18 5474   4.605   6.098   0.043
   13CHTO   C16 5475   4.611   6.305   4.021
   13CHTO   O11 5476   4.616   6.437   0.036
   13CHTO    H5 5477   4.616   6.500   4.007
   13CHTO    O3 5478   4.337   6.164   0.327
   13CHTO    C6 5479   4.209   6.119   0.270
   13CHTO   H19 5480   4.221   6.058   0.181
   13CHTO    C8 5481   4.132   6.036   0.378
   13CHTO   H21 5482   4.132   6.093   0.471
   13CHTO    O7 5483   4.206   5.914   0.396
   13CHTO    H2 5484   4.168   5.863   0.465
   13CHTO   C12 5485   3.982   6.009   0.334
   13CHTO   H25 5486   3.987   5.937   0.249
   13CHTO    N3 5487   3.905   5.941   0.443
   13CHTO   H12 5488   3.949   5.846   0.466
   13CHTO   H13 5489   3.902   6.004   0.531
   13CHTO   C15 5490   3.915   6.141   0.284
   13CHTO   H28 5491   3.898   6.211   0.366
   13CHTO   O10 5492   3.781   6.116   0.210
   13CHTO    H4 5493   3.718   6.081   0.270
   13CHTO    O5 5494   3.994   6.202   0.182
   13CHTO   C10 5495   4.124   6.243   0.228
   13CHTO   H23 5496   4.111   6.309   0.314
   13CHTO   C17 5497   4.190   6.323   0.116
   13CHTO   O12 5498   4.121   6.446   0.093
   13CHTO    H6 5499   4.163   6.494   0.025
   14CHTO  H203 5500   5.616   4.293   3.279
   14CHTO   O82 5501   5.707   4.291   3.304
   14CHTO  C123 5502   5.758   4.157   3.300
   14CHTO  H227 5503   5.866   4.160   3.325
   14CHTO   O77 5504   5.685   4.088   3.406
   14CHTO  C118 5505   5.731   3.955   3.432
   14CHTO  H222 5506   5.839   3.956   3.451
   14CHTO  C125 5507   5.657   3.903   3.560
   14CHTO   O84 5508   5.694   3.980   3.675
   14CHTO  H205 5509   5.649   3.947   3.751
   14CHTO  C114 5510   5.702   3.867   3.308
   14CHTO  H218 5511   5.595   3.867   3.290
   14CHTO  C116 5512   5.771   3.929   3.181
   14CHTO  H220 5513   5.881   3.918   3.192
   14CHTO   O79 5514   5.734   3.853   3.065
   14CHTO  H201 5515   5.641   3.857   3.051
   14CHTO  C120 5516   5.733   4.082   3.164
   14CHTO  H224 5517   5.625   4.085   3.139
   14CHTO   N21 5518   5.806   4.146   3.051
   14CHTO  H211 5519   5.821   4.251   3.069
   14CHTO  H212 5520   5.752   4.130   2.959
   14CHTO   O75 5521   5.748   3.734   3.345
   14CHTO  C112 5522   5.671   3.594   3.274
   14CHTO  H216 5523   5.710   3.505   3.326
   14CHTO   O73 5524   5.705   3.592   3.134
   14CHTO  C113 5525   5.645   3.490   3.053
   14CHTO  H217 5526   5.676   3.390   3.092
   14CHTO  C124 5527   5.703   3.504   2.912
   14CHTO   O83 5528   5.668   3.397   2.824
   14CHTO  H204 5529   5.710   3.318   2.852
   14CHTO  C109 5530   5.490   3.506   3.059
   14CHTO  H213 5531   5.468   3.609   3.028
   14CHTO  C110 5532   5.448   3.486   3.208
   14CHTO  H214 5533   5.481   3.387   3.242
   14CHTO   O78 5534   5.304   3.488   3.216
   14CHTO  H200 5535   5.276   3.469   3.303
   14CHTO  C111 5536   5.514   3.598   3.292
   14CHTO  H215 5537   5.477   3.695   3.256
   14CHTO   N19 5538   5.480   3.592   3.437
   14CHTO  H207 5539   5.527   3.674   3.489
   14CHTO  H208 5540   5.373   3.599   3.449
   14CHTO   O74 5541   5.420   3.413   2.969
   14CHTO  C115 5542   5.320   3.496   2.869
   14CHTO  H219 5543   5.283   3.588   2.916
   14CHTO   O76 5544   5.398   3.546   2.735
   14CHTO  C122 5545   5.371   3.468   2.618
   14CHTO  H226 5546   5.405   3.366   2.639
   14CHTO  C126 5547   5.460   3.519   2.499
   14CHTO   O85 5548   5.436   3.657   2.467
   14CHTO  H206 5549   5.491   3.682   2.395
   14CHTO  C121 5550   5.216   3.467   2.581
   14CHTO  H225 5551   5.195   3.552   2.512
   14CHTO   O81 5552   5.186   3.345   2.513
   14CHTO  H202 5553   5.230   3.342   2.431
   14CHTO  C119 5554   5.127   3.484   2.709
   14CHTO  H223 5555   5.132   3.590   2.732
   14CHTO  C117 5556   5.194   3.410   2.831
   14CHTO  H221 5557   5.231   3.309   2.812
   14CHTO   N20 5558   5.103   3.397   2.950
   14CHTO  H209 5559   5.089   3.292   2.975
   14CHTO  H210 5560   5.007   3.443   2.931
   14CHTO   O80 5561   4.968   3.467   2.678
   14CHTO  C103 5562   4.894   3.583   2.599
   14CHTO  H190 5563   4.961   3.669   2.591
   14CHTO  C101 5564   4.842   3.550   2.454
   14CHTO  H188 5565   4.769   3.470   2.460
   14CHTO   O68 5566   4.960   3.502   2.369
   14CHTO  H168 5567   4.929   3.476   2.284
   14CHTO   C99 5568   4.772   3.681   2.392
   14CHTO  H186 5569   4.849   3.760   2.380
   14CHTO   N17 5570   4.711   3.659   2.256
   14CHTO  H174 5571   4.787   3.621   2.189
   14CHTO  H175 5572   4.628   3.590   2.263
   14CHTO   C97 5573   4.667   3.740   2.492
   14CHTO  H184 5574   4.577   3.675   2.491
   14CHTO   O64 5575   4.722   3.753   2.624
   14CHTO  C104 5576   4.769   3.631   2.683
   14CHTO  H191 5577   4.692   3.553   2.681
   14CHTO  C108 5578   4.798   3.659   2.831
   14CHTO   O71 5579   4.804   3.538   2.908
   14CHTO  H171 5580   4.880   3.489   2.884
   14CHTO   O62 5581   4.631   3.874   2.454
   14CHTO   C91 5582   4.515   3.932   2.517
   14CHTO  H178 5583   4.445   3.852   2.539
   14CHTO   C92 5584   4.444   4.023   2.411
   14CHTO  H179 5585   4.431   3.968   2.316
   14CHTO   O66 5586   4.311   4.051   2.458
   14CHTO  H166 5587   4.261   4.096   2.392
   14CHTO   C93 5588   4.518   4.161   2.388
   14CHTO  H180 5589   4.444   4.228   2.342
   14CHTO   N16 5590   4.630   4.154   2.291
   14CHTO  H172 5591   4.613   4.221   2.208
   14CHTO  H173 5592   4.645   4.053   2.255
   14CHTO   C94 5593   4.565   4.224   2.526
   14CHTO  H181 5594   4.673   4.217   2.540
   14CHTO   O61 5595   4.507   4.156   2.639
   14CHTO   C95 5596   4.546   4.017   2.649
   14CHTO  H182 5597   4.653   4.012   2.669
   14CHTO  C106 5598   4.474   3.954   2.774
   14CHTO   O69 5599   4.520   4.015   2.895
   14CHTO  H169 5600   4.609   3.989   2.912
   14CHTO   O63 5601   4.517   4.377   2.528
   14CHTO   C96 5602   4.631   4.484   2.567
   14CHTO  H183 5603   4.588   4.583   2.552
   14CHTO   C98 5604   4.761   4.477   2.482
   14CHTO  H185 5605   4.799   4.374   2.479
   14CHTO   O67 5606   4.725   4.509   2.347
   14CHTO  H167 5607   4.799   4.499   2.290
   14CHTO  C102 5608   4.876   4.576   2.536
   14CHTO  H189 5609   4.842   4.678   2.513
   14CHTO   N18 5610   5.007   4.560   2.466
   14CHTO  H176 5611   5.038   4.654   2.422
   14CHTO  H177 5612   5.083   4.524   2.533
   14CHTO  C105 5613   4.888   4.564   2.691
   14CHTO  H192 5614   4.936   4.469   2.716
   14CHTO   O65 5615   4.761   4.572   2.758
   14CHTO  C100 5616   4.666   4.472   2.719
   14CHTO  H187 5617   4.711   4.373   2.737
   14CHTO  C107 5618   4.541   4.483   2.810
   14CHTO   O70 5619   4.479   4.612   2.803
   14CHTO  H170 5620   4.536   4.677   2.841
   14CHTO   O57 5621   4.981   4.689   2.739
   14CHTO   C85 5622   5.025   4.699   2.875
   14CHTO  H157 5623   4.967   4.624   2.934
   14CHTO   C83 5624   4.983   4.839   2.931
   14CHTO  H155 5625   4.873   4.843   2.932
   14CHTO   O56 5626   5.026   4.942   2.840
   14CHTO  H135 5627   4.993   5.026   2.868
   14CHTO   C81 5628   5.035   4.855   3.076
   14CHTO  H153 5629   4.995   4.773   3.136
   14CHTO   N14 5630   4.984   4.977   3.144
   14CHTO  H141 5631   5.020   5.065   3.095
   14CHTO  H142 5632   4.876   4.978   3.143
   14CHTO   C79 5633   5.192   4.845   3.078
   14CHTO  H151 5634   5.224   4.849   3.182
   14CHTO   O52 5635   5.233   4.715   3.026
   14CHTO   C86 5636   5.181   4.680   2.893
   14CHTO  H158 5637   5.238   4.746   2.824
   14CHTO   C90 5638   5.221   4.535   2.857
   14CHTO   O60 5639   5.363   4.516   2.861
   14CHTO  H138 5640   5.404   4.564   2.792
   14CHTO   O50 5641   5.259   4.952   3.007
   14CHTO   C73 5642   5.378   5.033   3.001
   14CHTO  H145 5643   5.439   5.017   3.091
   14CHTO   C74 5644   5.339   5.184   2.993
   14CHTO  H146 5645   5.279   5.207   3.082
   14CHTO   O54 5646   5.460   5.262   3.004
   14CHTO  H133 5647   5.497   5.254   3.089
   14CHTO   C75 5648   5.259   5.210   2.859
   14CHTO  H147 5649   5.165   5.155   2.864
   14CHTO   N13 5650   5.220   5.352   2.836
   14CHTO  H139 5651   5.253   5.415   2.917
   14CHTO  H140 5652   5.113   5.360   2.828
   14CHTO   C76 5653   5.340   5.152   2.733
   14CHTO  H148 5654   5.426   5.216   2.714
   14CHTO   O49 5655   5.386   5.015   2.756
   14CHTO   C77 5656   5.463   4.997   2.875
   14CHTO  H149 5657   5.551   5.061   2.872
   14CHTO   C88 5658   5.517   4.853   2.881
   14CHTO   O58 5659   5.609   4.825   2.766
   14CHTO  H136 5660   5.561   4.826   2.685
   14CHTO   O51 5661   5.243   5.141   2.607
   14CHTO   C78 5662   5.319   5.118   2.472
   14CHTO  H150 5663   5.425   5.090   2.490
   14CHTO   C80 5664   5.314   5.246   2.388
   14CHTO  H152 5665   5.207   5.279   2.379
   14CHTO   O55 5666   5.385   5.347   2.461
   14CHTO  H134 5667   5.377   5.431   2.418
   14CHTO   C84 5668   5.375   5.225   2.243
   14CHTO  H156 5669   5.481   5.207   2.255
   14CHTO   N15 5670   5.360   5.347   2.156
   14CHTO  H143 5671   5.404   5.328   2.060
   14CHTO  H144 5672   5.409   5.430   2.201
   14CHTO   C87 5673   5.312   5.100   2.176
   14CHTO  H159 5674   5.207   5.119   2.153
   14CHTO   O53 5675   5.323   4.980   2.273
   14CHTO   C82 5676   5.253   5.000   2.397
   14CHTO  H154 5677   5.147   5.019   2.378
   14CHTO   C89 5678   5.263   4.867   2.474
   14CHTO   O59 5679   5.177   4.864   2.589
   14CHTO  H137 5680   5.209   4.923   2.654
   14CHTO   O45 5681   5.391   5.063   2.030
   14CHTO   C67 5682   5.469   4.942   2.029
   14CHTO  H124 5683   5.429   4.869   2.098
   14CHTO   C65 5684   5.467   4.882   1.885
   14CHTO  H122 5685   5.364   4.889   1.851
   14CHTO   O44 5686   5.504   4.743   1.893
   14CHTO  H102 5687   5.492   4.702   1.809
   14CHTO   C63 5688   5.553   4.971   1.788
   14CHTO  H120 5689   5.515   5.073   1.792
   14CHTO   N11 5690   5.541   4.937   1.642
   14CHTO  H108 5691   5.485   4.847   1.628
   14CHTO  H109 5692   5.493   5.017   1.589
   14CHTO   C61 5693   5.700   4.975   1.841
   14CHTO  H118 5694   5.755   5.046   1.776
   14CHTO   O40 5695   5.704   5.031   1.975
   14CHTO   C68 5696   5.617   4.974   2.079
   14CHTO  H125 5697   5.607   5.053   2.156
   14CHTO   C72 5698   5.683   4.852   2.147
   14CHTO   O48 5699   5.804   4.887   2.214
   14CHTO  H105 5700   5.841   4.810   2.254
   14CHTO   O38 5701   5.767   4.847   1.843
   14CHTO   C55 5702   5.890   4.829   1.771
   14CHTO  H112 5703   5.909   4.916   1.706
   14CHTO   C56 5704   5.881   4.694   1.689
   14CHTO  H113 5705   5.844   4.617   1.759
   14CHTO   O42 5706   5.781   4.708   1.587
   14CHTO  H100 5707   5.768   4.626   1.543
   14CHTO   C57 5708   6.021   4.651   1.628
   14CHTO  H114 5709   6.042   4.721   1.547
   14CHTO   N10 5710   6.018   4.514   1.569
   14CHTO  H106 5711   5.987   4.520   1.466
   14CHTO  H107 5712   6.115   4.468   1.575
   14CHTO   C58 5713   6.133   4.664   1.734
   14CHTO  H115 5714   6.119   4.584   1.812
   14CHTO   O37 5715   6.132   4.793   1.797
   14CHTO   C59 5716   6.011   4.822   1.869
   14CHTO  H116 5717   5.994   4.744   1.943
   14CHTO   C70 5718   6.032   4.954   1.944
   14CHTO   O46 5719   6.127   4.945   2.050
   14CHTO  H103 5720   6.093   4.891   2.119
   14CHTO   O39 5721   6.278   4.650   1.663
   14CHTO   C60 5722   6.378   4.583   1.741
   14CHTO  H117 5723   6.369   4.615   1.845
   14CHTO   C62 5724   6.364   4.428   1.736
   14CHTO  H119 5725   6.266   4.404   1.783
   14CHTO   O43 5726   6.362   4.385   1.598
   14CHTO  H101 5727   6.283   4.415   1.556
   14CHTO   C66 5728   6.482   4.359   1.821
   14CHTO  H123 5729   6.477   4.397   1.923
   14CHTO   N12 5730   6.466   4.212   1.832
   14CHTO  H110 5731   6.466   4.167   1.733
   14CHTO  H111 5732   6.375   4.188   1.885
   14CHTO   C69 5733   6.618   4.401   1.761
   14CHTO  H126 5734   6.624   4.369   1.654
   14CHTO   O41 5735   6.630   4.557   1.769
   14CHTO   C64 5736   6.519   4.628   1.692
   14CHTO  H121 5737   6.528   4.604   1.585
   14CHTO   C71 5738   6.536   4.781   1.708
   14CHTO   O47 5739   6.657   4.825   1.646
   14CHTO  H104 5740   6.732   4.795   1.695
   14CHTO   O34 5741   6.742   4.339   1.839
   14CHTO   C49 5742   6.856   4.259   1.771
   14CHTO   H91 5743   6.812   4.166   1.735
   14CHTO   C47 5744   6.965   4.230   1.876
   14CHTO   H89 5745   7.037   4.163   1.823
   14CHTO   O33 5746   6.912   4.159   1.988
   14CHTO   H70 5747   6.881   4.075   1.962
   14CHTO   C45 5748   7.037   4.367   1.925
   14CHTO   H87 5749   6.986   4.403   2.015
   14CHTO    N8 5750   7.178   4.336   1.961
   14CHTO   H75 5751   7.181   4.258   2.036
   14CHTO   H76 5752   7.233   4.305   1.874
   14CHTO   C43 5753   7.017   4.485   1.817
   14CHTO   H85 5754   6.918   4.527   1.839
   14CHTO   O29 5755   7.023   4.433   1.683
   14CHTO   C50 5756   6.923   4.335   1.651
   14CHTO   H92 5757   6.843   4.385   1.594
   14CHTO   C54 5758   6.982   4.234   1.549
   14CHTO   O36 5759   7.013   4.298   1.424
   14CHTO   H72 5760   7.050   4.234   1.366
   14CHTO   O27 5761   7.107   4.595   1.835
   14CHTO   C37 5762   7.098   4.738   1.832
   14CHTO   H79 5763   7.199   4.782   1.841
   14CHTO   C38 5764   7.039   4.788   1.697
   14CHTO   H80 5765   6.944   4.735   1.678
   14CHTO   O31 5766   7.133   4.754   1.593
   14CHTO   H68 5767   7.134   4.661   1.580
   14CHTO   C39 5768   7.012   4.944   1.700
   14CHTO   H81 5769   7.109   4.993   1.709
   14CHTO    N7 5770   6.946   4.997   1.576
   14CHTO   H73 5771   7.009   5.071   1.529
   14CHTO   H74 5772   6.924   4.917   1.507
   14CHTO   C40 5773   6.930   4.981   1.830
   14CHTO   H82 5774   6.830   4.937   1.822
   14CHTO   O26 5775   7.000   4.933   1.946
   14CHTO   C41 5776   7.011   4.788   1.951
   14CHTO   H83 5777   6.911   4.743   1.944
   14CHTO   C52 5778   7.070   4.748   2.088
   14CHTO   O35 5779   7.205   4.804   2.112
   14CHTO   H71 5780   7.236   4.776   2.196
   14CHTO   O28 5781   6.916   5.123   1.849
   14CHTO   C42 5782   6.821   5.180   1.945
   14CHTO   H84 5783   6.833   5.287   1.933
   14CHTO   C44 5784   6.850   5.150   2.096
   14CHTO   H86 5785   6.845   5.043   2.112
   14CHTO   O32 5786   6.985   5.192   2.122
   14CHTO   H69 5787   6.994   5.285   2.113
   14CHTO   C48 5788   6.745   5.219   2.192
   14CHTO   H90 5789   6.756   5.327   2.183
   14CHTO    N9 5790   6.770   5.187   2.336
   14CHTO   H77 5791   6.698   5.238   2.399
   14CHTO   H78 5792   6.764   5.081   2.352
   14CHTO   C51 5793   6.599   5.179   2.146
   14CHTO   H93 5794   6.588   5.072   2.160
   14CHTO   O30 5795   6.581   5.218   2.009
   14CHTO   C46 5796   6.672   5.147   1.912
   14CHTO   H88 5797   6.656   5.039   1.923
   14CHTO   C53 5798   6.632   5.190   1.768
   14CHTO   O72 5799   6.645   5.332   1.749
   14CHTO  H199 5800   6.620   5.353   1.661
   14CHTO   O22 5801   6.497   5.251   2.218
   14CHTO   C31 5802   6.368   5.186   2.248
   14CHTO   H59 5803   6.366   5.092   2.188
   14CHTO   C29 5804   6.352   5.146   2.396
   14CHTO   H57 5805   6.357   5.238   2.457
   14CHTO   O21 5806   6.465   5.065   2.434
   14CHTO   H37 5807   6.464   5.049   2.527
   14CHTO   C27 5808   6.213   5.075   2.421
   14CHTO   H55 5809   6.208   4.985   2.358
   14CHTO    N5 5810   6.191   5.035   2.562
   14CHTO   H43 5811   6.097   4.984   2.572
   14CHTO   H44 5812   6.194   5.122   2.626
   14CHTO   C25 5813   6.101   5.173   2.371
   14CHTO   H53 5814   6.108   5.267   2.428
   14CHTO   O17 5815   6.123   5.201   2.231
   14CHTO   C32 5816   6.245   5.270   2.201
   14CHTO   H60 5817   6.247   5.367   2.251
   14CHTO   C36 5818   6.244   5.292   2.048
   14CHTO   O25 5819   6.345   5.384   2.007
   14CHTO   H40 5820   6.342   5.395   1.914
   14CHTO   O15 5821   5.950   5.112   2.387
   14CHTO   C19 5822   5.839   5.185   2.448
   14CHTO   H47 5823   5.752   5.121   2.429
   14CHTO   C20 5824   5.854   5.203   2.603
   14CHTO   H48 5825   5.951   5.249   2.630
   14CHTO   O19 5826   5.853   5.071   2.661
   14CHTO   H35 5827   5.769   5.030   2.647
   14CHTO   C21 5828   5.740   5.293   2.666
   14CHTO   H49 5829   5.645   5.242   2.655
   14CHTO    N4 5830   5.758   5.318   2.812
   14CHTO   H41 5831   5.769   5.424   2.833
   14CHTO   H42 5832   5.844   5.265   2.850
   14CHTO   C22 5833   5.731   5.424   2.582
   14CHTO   H50 5834   5.826   5.476   2.589
   14CHTO   O14 5835   5.703   5.392   2.445
   14CHTO   C23 5836   5.810   5.322   2.378
   14CHTO   H51 5837   5.898   5.388   2.377
   14CHTO   C34 5838   5.761   5.305   2.234
   14CHTO   O23 5839   5.859   5.248   2.146
   14CHTO   H38 5840   5.876   5.159   2.170
   14CHTO   O16 5841   5.621   5.509   2.623
   14CHTO   C24 5842   5.656   5.668   2.608
   14CHTO   H52 5843   5.728   5.687   2.529
   14CHTO   C26 5844   5.712   5.719   2.742
   14CHTO   H54 5845   5.643   5.688   2.824
   14CHTO   O20 5846   5.839   5.655   2.765
   14CHTO   H36 5847   5.901   5.680   2.700
   14CHTO   C30 5848   5.724   5.875   2.745
   14CHTO   H58 5849   5.802   5.907   2.674
   14CHTO    N6 5850   5.769   5.923   2.879
   14CHTO   H45 5851   5.861   5.978   2.870
   14CHTO   H46 5852   5.694   5.986   2.925
   14CHTO   C33 5853   5.591   5.940   2.697
   14CHTO   H61 5854   5.511   5.919   2.768
   14CHTO   O18 5855   5.554   5.887   2.568
   14CHTO   C28 5856   5.526   5.745   2.570
   14CHTO   H56 5857   5.448   5.722   2.643
   14CHTO   C35 5858   5.479   5.701   2.430
   14CHTO   O24 5859   5.356   5.764   2.391
   14CHTO   H39 5860   5.331   5.734   2.306
   14CHTO    O9 5861   5.602   6.084   2.693
   14CHTO   C13 5862   5.463   6.174   2.690
   14CHTO   H26 5863   5.397   6.132   2.611
   14CHTO   C11 5864   5.506   6.325   2.656
   14CHTO   H24 5865   5.531   6.328   2.549
   14CHTO    O8 5866   5.625   6.359   2.730
   14CHTO    H3 5867   5.697   6.304   2.703
   14CHTO    C9 5868   5.387   6.421   2.681
   14CHTO   H22 5869   5.305   6.383   2.619
   14CHTO    N2 5870   5.409   6.559   2.632
   14CHTO   H10 5871   5.487   6.607   2.690
   14CHTO   H11 5872   5.317   6.616   2.640
   14CHTO    C7 5873   5.344   6.410   2.832
   14CHTO   H20 5874   5.262   6.484   2.846
   14CHTO    O4 5875   5.293   6.277   2.854
   14CHTO   C14 5876   5.378   6.164   2.826
   14CHTO   H27 5877   5.309   6.079   2.812
   14CHTO   C18 5878   5.463   6.132   2.952
   14CHTO   O13 5879   5.380   6.090   3.060
   14CHTO    H7 5880   5.433   6.071   3.135
   14CHTO    O2 5881   5.468   6.439   2.939
   14CHTO    C1 5882   5.475   6.566   3.004
   14CHTO   H14 5883   5.399   6.636   2.962
   14CHTO    C2 5884   5.619   6.632   2.989
   14CHTO   H15 5885   5.691   6.551   3.011
   14CHTO    O6 5886   5.637   6.673   2.852
   14CHTO    H1 5887   5.725   6.703   2.839
   14CHTO    C3 5888   5.643   6.755   3.090
   14CHTO   H16 5889   5.580   6.839   3.059
   14CHTO    N1 5890   5.785   6.802   3.091
   14CHTO    H8 5891   5.790   6.906   3.060
   14CHTO    H9 5892   5.847   6.742   3.025
   14CHTO    C4 5893   5.593   6.714   3.234
   14CHTO   H17 5894   5.656   6.633   3.271
   14CHTO    O1 5895   5.456   6.671   3.227
   14CHTO    C5 5896   5.440   6.547   3.156
   14CHTO   H18 5897   5.507   6.471   3.197
   14CHTO   C16 5898   5.294   6.504   3.181
   14CHTO   O11 5899   5.271   6.367   3.144
   14CHTO    H5 5900   5.317   6.310   3.203
   14CHTO    O3 5901   5.594   6.825   3.327
   14CHTO    C6 5902   5.596   6.783   3.468
   14CHTO   H19 5903   5.564   6.680   3.482
   14CHTO    C8 5904   5.741   6.797   3.526
   14CHTO   H21 5905   5.775   6.899   3.511
   14CHTO    O7 5906   5.825   6.705   3.453
   14CHTO    H2 5907   5.914   6.716   3.479
   14CHTO   C12 5908   5.740   6.765   3.681
   14CHTO   H25 5909   5.713   6.658   3.690
   14CHTO    N3 5910   5.876   6.780   3.742
   14CHTO   H12 5911   5.907   6.687   3.788
   14CHTO   H13 5912   5.878   6.860   3.814
   14CHTO   C15 5913   5.628   6.850   3.752
   14CHTO   H28 5914   5.654   6.956   3.755
   14CHTO   O10 5915   5.600   6.802   3.895
   14CHTO    H4 5916   5.542   6.861   3.939
   14CHTO    O5 5917   5.501   6.832   3.688
   14CHTO   C10 5918   5.498   6.872   3.550
   14CHTO   H23 5919   5.528   6.976   3.543
   14CHTO   C17 5920   5.354   6.860   3.498
   14CHTO   O12 5921   5.266   6.952   3.565
   14CHTO    H6 5922   5.254   6.925   3.654
   15CHTO  H203 5923   6.045   4.293   2.600
   15CHTO   O82 5924   6.114   4.311   2.540
   15CHTO  C123 5925   6.136   4.200   2.452
   15CHTO  H227 5926   6.137   4.107   2.512
   15CHTO   O77 5927   6.017   4.201   2.367
   15CHTO  C118 5928   6.010   4.091   2.274
   15CHTO  H222 5929   6.014   3.996   2.328
   15CHTO  C125 5930   5.872   4.102   2.199
   15CHTO   O84 5931   5.762   4.088   2.290
   15CHTO  H205 5932   5.757   4.162   2.347
   15CHTO  C114 5933   6.129   4.100   2.176
   15CHTO  H218 5934   6.124   4.197   2.125
   15CHTO  C116 5935   6.265   4.101   2.253
   15CHTO  H220 5936   6.282   4.002   2.301
   15CHTO   O79 5937   6.371   4.119   2.157
   15CHTO  H201 5938   6.454   4.112   2.200
   15CHTO  C120 5939   6.266   4.214   2.365
   15CHTO  H224 5940   6.265   4.311   2.311
   15CHTO   N21 5941   6.389   4.211   2.447
   15CHTO  H211 5942   6.378   4.144   2.531
   15CHTO  H212 5943   6.475   4.182   2.388
   15CHTO   O75 5944   6.108   3.996   2.078
   15CHTO  C112 5945   6.179   3.848   2.100
   15CHTO  H216 5946   6.200   3.833   2.207
   15CHTO   O73 5947   6.299   3.845   2.021
   15CHTO  C113 5948   6.374   3.723   2.029
   15CHTO  H217 5949   6.401   3.704   2.134
   15CHTO  C124 5950   6.505   3.739   1.951
   15CHTO   O83 5951   6.590   3.840   2.006
   15CHTO  H204 5952   6.669   3.845   1.956
   15CHTO  C109 5953   6.290   3.603   1.975
   15CHTO  H213 5954   6.271   3.623   1.869
   15CHTO  C110 5955   6.155   3.595   2.053
   15CHTO  H214 5956   6.176   3.565   2.156
   15CHTO   O78 5957   6.074   3.493   1.993
   15CHTO  H200 5958   5.995   3.480   2.043
   15CHTO  C111 5959   6.081   3.733   2.052
   15CHTO  H215 5960   6.051   3.756   1.948
   15CHTO   N19 5961   5.958   3.733   2.134
   15CHTO  H207 5962   5.889   3.658   2.097
   15CHTO  H208 5963   5.910   3.830   2.129
   15CHTO   O74 5964   6.367   3.479   1.988
   15CHTO  C115 5965   6.330   3.367   1.871
   15CHTO  H219 5966   6.226   3.336   1.876
   15CHTO   O76 5967   6.350   3.425   1.728
   15CHTO  C122 5968   6.311   3.338   1.620
   15CHTO  H226 5969   6.342   3.386   1.528
   15CHTO  C126 5970   6.154   3.328   1.612
   15CHTO   O85 5971   6.092   3.456   1.600
   15CHTO  H206 5972   5.999   3.445   1.595
   15CHTO  C121 5973   6.379   3.196   1.629
   15CHTO  H225 5974   6.324   3.127   1.561
   15CHTO   O81 5975   6.513   3.206   1.580
   15CHTO  H202 5976   6.565   3.261   1.636
   15CHTO  C119 5977   6.376   3.135   1.774
   15CHTO  H223 5978   6.273   3.106   1.792
   15CHTO  C117 5979   6.418   3.238   1.886
   15CHTO  H221 5980   6.521   3.273   1.883
   15CHTO   N20 5981   6.401   3.178   2.022
   15CHTO  H209 5982   6.463   3.091   2.032
   15CHTO  H210 5983   6.297   3.151   2.039
   15CHTO   O80 5984   6.452   2.992   1.781
   15CHTO  C103 5985   6.370   2.850   1.769
   15CHTO  H190 5986   6.370   2.800   1.866
   15CHTO  C101 5987   6.221   2.852   1.715
   15CHTO  H188 5988   6.216   2.916   1.627
   15CHTO   O68 5989   6.131   2.912   1.825
   15CHTO  H168 5990   6.044   2.922   1.793
   15CHTO   C99 5991   6.172   2.705   1.676
   15CHTO  H186 5992   6.169   2.642   1.767
   15CHTO   N17 5993   6.034   2.700   1.617
   15CHTO  H174 5994   5.963   2.743   1.687
   15CHTO  H175 5995   6.032   2.752   1.523
   15CHTO   C97 5996   6.276   2.638   1.582
   15CHTO  H184 5997   6.280   2.695   1.488
   15CHTO   O64 5998   6.404   2.635   1.648
   15CHTO  C104 5999   6.461   2.765   1.673
   15CHTO  H191 6000   6.477   2.820   1.580
   15CHTO  C108 6001   6.601   2.740   1.732
   15CHTO   O71 6002   6.686   2.855   1.725
   15CHTO  H171 6003   6.770   2.835   1.762
   15CHTO   O62 6004   6.249   2.498   1.557
   15CHTO   C91 6005   6.289   2.447   1.428
   15CHTO  H178 6006   6.352   2.521   1.379
   15CHTO   C92 6007   6.161   2.431   1.338
   15CHTO  H179 6008   6.103   2.525   1.340
   15CHTO   O66 6009   6.205   2.415   1.202
   15CHTO  H166 6010   6.131   2.417   1.144
   15CHTO   C93 6011   6.073   2.305   1.377
   15CHTO  H180 6012   6.016   2.277   1.286
   15CHTO   N16 6013   5.970   2.334   1.479
   15CHTO  H172 6014   5.912   2.245   1.500
   15CHTO  H173 6015   5.905   2.414   1.444
   15CHTO   C94 6016   6.163   2.183   1.420
   15CHTO  H181 6017   6.169   2.172   1.528
   15CHTO   O61 6018   6.299   2.198   1.374
   15CHTO   C95 6019   6.369   2.309   1.435
   15CHTO  H182 6020   6.387   2.285   1.540
   15CHTO  C106 6021   6.511   2.321   1.369
   15CHTO   O69 6022   6.504   2.345   1.228
   15CHTO  H169 6023   6.591   2.352   1.193
   15CHTO   O63 6024   6.102   2.052   1.357
   15CHTO   C96 6025   6.142   1.918   1.433
   15CHTO  H183 6026   6.177   1.944   1.533
   15CHTO   C98 6027   6.253   1.835   1.361
   15CHTO  H185 6028   6.231   1.831   1.253
   15CHTO   O67 6029   6.376   1.909   1.373
   15CHTO  H167 6030   6.372   1.988   1.323
   15CHTO  C102 6031   6.272   1.687   1.420
   15CHTO  H189 6032   6.325   1.699   1.515
   15CHTO   N18 6033   6.358   1.597   1.338
   15CHTO  H176 6034   6.443   1.563   1.395
   15CHTO  H177 6035   6.392   1.648   1.249
   15CHTO  C105 6036   6.135   1.621   1.453
   15CHTO  H192 6037   6.087   1.589   1.360
   15CHTO   O65 6038   6.046   1.710   1.522
   15CHTO  C100 6039   6.013   1.829   1.449
   15CHTO  H187 6040   5.976   1.801   1.349
   15CHTO  C107 6041   5.900   1.905   1.523
   15CHTO   O70 6042   5.780   1.827   1.529
   15CHTO  H170 6043   5.743   1.819   1.443
   15CHTO   O57 6044   6.169   1.487   1.549
   15CHTO   C85 6045   6.076   1.437   1.646
   15CHTO  H157 6046   6.021   1.524   1.687
   15CHTO   C83 6047   6.157   1.378   1.766
   15CHTO  H155 6048   6.217   1.459   1.809
   15CHTO   O56 6049   6.252   1.281   1.717
   15CHTO  H135 6050   6.207   1.206   1.682
   15CHTO   C81 6051   6.059   1.325   1.874
   15CHTO  H153 6052   5.995   1.407   1.905
   15CHTO   N14 6053   6.129   1.284   1.999
   15CHTO  H141 6054   6.191   1.199   1.980
   15CHTO  H142 6055   6.057   1.258   2.074
   15CHTO   C79 6056   5.968   1.211   1.813
   15CHTO  H151 6057   5.894   1.185   1.888
   15CHTO   O52 6058   5.895   1.262   1.697
   15CHTO   C86 6059   5.977   1.325   1.593
   15CHTO  H158 6060   6.034   1.241   1.549
   15CHTO   C90 6061   5.886   1.379   1.481
   15CHTO   O60 6062   5.822   1.271   1.410
   15CHTO  H138 6063   5.768   1.306   1.342
   15CHTO   O50 6064   6.040   1.092   1.776
   15CHTO   C73 6065   6.028   0.950   1.780
   15CHTO  H145 6066   5.925   0.921   1.805
   15CHTO   C74 6067   6.125   0.889   1.886
   15CHTO  H146 6068   6.097   0.933   1.983
   15CHTO   O54 6069   6.099   0.748   1.895
   15CHTO  H133 6070   6.152   0.710   1.963
   15CHTO   C75 6071   6.273   0.924   1.845
   15CHTO  H147 6072   6.284   1.033   1.844
   15CHTO   N13 6073   6.374   0.875   1.942
   15CHTO  H139 6074   6.356   0.918   2.039
   15CHTO  H140 6075   6.473   0.904   1.909
   15CHTO   C76 6076   6.300   0.872   1.696
   15CHTO  H148 6077   6.294   0.763   1.696
   15CHTO   O49 6078   6.198   0.926   1.603
   15CHTO   C77 6079   6.063   0.892   1.639
   15CHTO  H149 6080   6.051   0.784   1.641
   15CHTO   C88 6081   5.969   0.943   1.529
   15CHTO   O58 6082   5.827   0.909   1.557
   15CHTO  H136 6083   5.797   0.956   1.632
   15CHTO   O51 6084   6.446   0.926   1.644
   15CHTO   C78 6085   6.465   0.938   1.486
   15CHTO  H150 6086   6.374   0.979   1.438
   15CHTO   C80 6087   6.497   0.800   1.423
   15CHTO  H152 6088   6.581   0.755   1.478
   15CHTO   O55 6089   6.383   0.715   1.442
   15CHTO  H134 6090   6.308   0.747   1.395
   15CHTO   C84 6091   6.536   0.815   1.270
   15CHTO  H156 6092   6.448   0.849   1.216
   15CHTO   N15 6093   6.577   0.684   1.209
   15CHTO  H143 6094   6.600   0.697   1.105
   15CHTO  H144 6095   6.663   0.645   1.259
   15CHTO   C87 6096   6.647   0.922   1.255
   15CHTO  H159 6097   6.737   0.887   1.305
   15CHTO   O53 6098   6.599   1.053   1.319
   15CHTO   C82 6099   6.578   1.039   1.460
   15CHTO  H154 6100   6.670   1.005   1.507
   15CHTO   C89 6101   6.545   1.177   1.521
   15CHTO   O59 6102   6.428   1.238   1.464
   15CHTO  H137 6103   6.352   1.189   1.488
   15CHTO   O45 6104   6.683   0.952   1.098
   15CHTO   C67 6105   6.799   1.037   1.082
   15CHTO  H124 6106   6.784   1.127   1.142
   15CHTO   C65 6107   6.930   0.965   1.130
   15CHTO  H122 6108   6.906   0.859   1.137
   15CHTO   O44 6109   6.958   1.016   1.261
   15CHTO  H102 6110   7.027   0.966   1.301
   15CHTO   C63 6111   7.047   0.972   1.025
   15CHTO  H120 6112   7.020   0.911   0.939
   15CHTO   N11 6113   7.179   0.912   1.067
   15CHTO  H108 6114   7.199   0.823   1.010
   15CHTO  H109 6115   7.178   0.889   1.171
   15CHTO   C61 6116   7.058   1.120   0.973
   15CHTO  H118 6117   7.133   1.120   0.892
   15CHTO   O40 6118   6.934   1.169   0.916
   15CHTO   C68 6119   6.812   1.088   0.932
   15CHTO  H125 6120   6.816   1.003   0.862
   15CHTO   C72 6121   6.694   1.178   0.890
   15CHTO   O48 6122   6.570   1.108   0.883
   15CHTO  H105 6123   6.502   1.167   0.859
   15CHTO   O38 6124   7.097   1.211   1.078
   15CHTO   C55 6125   7.160   1.333   1.034
   15CHTO  H112 6126   7.135   1.352   0.929
   15CHTO   C56 6127   7.317   1.325   1.058
   15CHTO  H113 6128   7.333   1.298   1.164
   15CHTO   O42 6129   7.372   1.217   0.980
   15CHTO  H100 6130   7.339   1.134   1.010
   15CHTO   C57 6131   7.387   1.462   1.023
   15CHTO  H114 6132   7.381   1.473   0.915
   15CHTO   N10 6133   7.531   1.465   1.061
   15CHTO  H106 6134   7.590   1.428   0.979
   15CHTO  H107 6135   7.563   1.566   1.084
   15CHTO   C58 6136   7.309   1.580   1.089
   15CHTO  H115 6137   7.325   1.578   1.199
   15CHTO   O37 6138   7.168   1.571   1.060
   15CHTO   C59 6139   7.104   1.455   1.113
   15CHTO  H116 6140   7.124   1.445   1.220
   15CHTO   C70 6141   6.953   1.473   1.092
   15CHTO   O46 6142   6.874   1.376   1.162
   15CHTO  H103 6143   6.883   1.389   1.255
   15CHTO   O39 6144   7.363   1.723   1.027
   15CHTO   C60 6145   7.286   1.838   1.065
   15CHTO  H117 6146   7.183   1.809   1.085
   15CHTO   C62 6147   7.342   1.903   1.195
   15CHTO  H119 6148   7.343   1.823   1.272
   15CHTO   O43 6149   7.478   1.947   1.174
   15CHTO  H101 6150   7.481   2.015   1.109
   15CHTO   C66 6151   7.242   2.019   1.241
   15CHTO  H123 6152   7.143   1.975   1.257
   15CHTO   N12 6153   7.279   2.078   1.372
   15CHTO  H110 6154   7.209   2.155   1.400
   15CHTO  H111 6155   7.284   2.001   1.447
   15CHTO   C69 6156   7.228   2.127   1.130
   15CHTO  H126 6157   7.323   2.185   1.121
   15CHTO   O41 6158   7.195   2.059   0.989
   15CHTO   C64 6159   7.281   1.942   0.949
   15CHTO  H121 6160   7.384   1.977   0.926
   15CHTO   C71 6161   7.220   1.882   0.820
   15CHTO   O47 6162   7.306   1.786   0.757
   15CHTO  H104 6163   7.314   1.710   0.812
   15CHTO   O34 6164   7.111   2.228   1.164
   15CHTO   C49 6165   6.957   2.255   1.143
   15CHTO   H91 6166   6.935   2.348   1.195
   15CHTO   C47 6167   6.874   2.141   1.208
   15CHTO   H89 6168   6.769   2.177   1.210
   15CHTO   O33 6169   6.919   2.123   1.343
   15CHTO   H70 6170   6.899   2.198   1.395
   15CHTO   C45 6171   6.883   2.007   1.119
   15CHTO   H87 6172   6.989   1.979   1.108
   15CHTO    N8 6173   6.811   1.893   1.181
   15CHTO   H75 6174   6.738   1.852   1.113
   15CHTO   H76 6175   6.881   1.816   1.210
   15CHTO   C43 6176   6.834   2.040   0.969
   15CHTO   H85 6177   6.848   1.948   0.912
   15CHTO   O29 6178   6.911   2.149   0.915
   15CHTO   C50 6179   6.920   2.270   0.993
   15CHTO   H92 6180   7.001   2.330   0.947
   15CHTO   C54 6181   6.795   2.360   0.973
   15CHTO   O36 6182   6.781   2.403   0.837
   15CHTO   H72 6183   6.851   2.462   0.815
   15CHTO   O27 6184   6.693   2.069   0.964
   15CHTO   C37 6185   6.571   2.029   0.900
   15CHTO   H79 6186   6.576   1.923   0.870
   15CHTO   C38 6187   6.452   2.045   0.999
   15CHTO   H80 6188   6.454   2.147   1.041
   15CHTO   O31 6189   6.471   1.950   1.106
   15CHTO   H68 6190   6.544   1.976   1.159
   15CHTO   C39 6191   6.312   2.021   0.930
   15CHTO   H81 6192   6.303   1.914   0.911
   15CHTO    N7 6193   6.195   2.058   1.016
   15CHTO   H73 6194   6.199   2.163   1.040
   15CHTO   H74 6195   6.102   2.034   0.967
   15CHTO   C40 6196   6.303   2.092   0.789
   15CHTO   H82 6197   6.283   2.198   0.800
   15CHTO   O26 6198   6.422   2.067   0.712
   15CHTO   C41 6199   6.544   2.116   0.775
   15CHTO   H83 6200   6.531   2.221   0.805
   15CHTO   C52 6201   6.658   2.109   0.671
   15CHTO   O35 6202   6.634   2.192   0.553
   15CHTO   H71 6203   6.562   2.156   0.505
   15CHTO   O28 6204   6.200   2.032   0.708
   15CHTO   C42 6205   6.132   2.105   0.600
   15CHTO   H84 6206   6.093   2.025   0.537
   15CHTO   C44 6207   6.221   2.194   0.507
   15CHTO   H86 6208   6.273   2.268   0.568
   15CHTO   O32 6209   6.321   2.107   0.448
   15CHTO   H69 6210   6.383   2.158   0.399
   15CHTO   C48 6211   6.139   2.270   0.395
   15CHTO   H90 6212   6.106   2.195   0.322
   15CHTO    N9 6213   6.224   2.368   0.319
   15CHTO   H77 6214   6.164   2.417   0.243
   15CHTO   H78 6215   6.307   2.316   0.273
   15CHTO   C51 6216   6.010   2.338   0.456
   15CHTO   H93 6217   6.042   2.421   0.519
   15CHTO   O30 6218   5.936   2.240   0.530
   15CHTO   C46 6219   6.010   2.187   0.650
   15CHTO   H88 6220   6.045   2.271   0.710
   15CHTO   C53 6221   5.911   2.101   0.732
   15CHTO   O72 6222   5.801   2.180   0.779
   15CHTO  H199 6223   5.831   2.239   0.846
   15CHTO   O22 6224   5.919   2.382   0.353
   15CHTO   C31 6225   5.827   2.496   0.374
   15CHTO   H59 6226   5.757   2.492   0.289
   15CHTO   C29 6227   5.742   2.487   0.503
   15CHTO   H57 6228   5.811   2.475   0.588
   15CHTO   O21 6229   5.663   2.367   0.496
   15CHTO   H37 6230   5.621   2.351   0.578
   15CHTO   C27 6231   5.653   2.616   0.527
   15CHTO   H55 6232   5.577   2.622   0.447
   15CHTO    N5 6233   5.584   2.616   0.658
   15CHTO   H43 6234   5.611   2.530   0.717
   15CHTO   H44 6235   5.477   2.619   0.644
   15CHTO   C25 6236   5.744   2.743   0.512
   15CHTO   H53 6237   5.822   2.740   0.590
   15CHTO   O17 6238   5.808   2.742   0.382
   15CHTO   C32 6239   5.900   2.633   0.363
   15CHTO   H60 6240   5.978   2.638   0.439
   15CHTO   C36 6241   5.966   2.650   0.224
   15CHTO   O25 6242   6.044   2.770   0.216
   15CHTO   H40 6243   6.120   2.761   0.270
   15CHTO   O15 6244   5.661   2.881   0.525
   15CHTO   C19 6245   5.697   2.993   0.612
   15CHTO   H47 6246   5.641   3.078   0.570
   15CHTO   C20 6247   5.655   2.974   0.761
   15CHTO   H48 6248   5.695   2.881   0.803
   15CHTO   O19 6249   5.511   2.964   0.762
   15CHTO   H35 6250   5.484   2.883   0.723
   15CHTO   C21 6251   5.703   3.094   0.853
   15CHTO   H49 6252   5.649   3.184   0.824
   15CHTO    N4 6253   5.674   3.072   0.998
   15CHTO   H41 6254   5.706   3.157   1.055
   15CHTO   H42 6255   5.726   2.984   1.033
   15CHTO   C22 6256   5.853   3.120   0.827
   15CHTO   H50 6257   5.911   3.034   0.861
   15CHTO   O14 6258   5.876   3.144   0.687
   15CHTO   C23 6259   5.848   3.032   0.602
   15CHTO   H51 6260   5.914   2.950   0.634
   15CHTO   C34 6261   5.887   3.071   0.459
   15CHTO   O23 6262   6.028   3.093   0.447
   15CHTO   H38 6263   6.048   3.117   0.358
   15CHTO   O16 6264   5.902   3.243   0.885
   15CHTO   C24 6265   6.017   3.230   1.000
   15CHTO   H52 6266   6.005   3.139   1.059
   15CHTO   C26 6267   6.001   3.354   1.091
   15CHTO   H54 6268   5.993   3.444   1.025
   15CHTO   O20 6269   5.876   3.342   1.161
   15CHTO   H36 6270   5.857   3.421   1.208
   15CHTO   C30 6271   6.120   3.376   1.189
   15CHTO   H58 6272   6.114   3.302   1.271
   15CHTO    N6 6273   6.114   3.511   1.255
   15CHTO   H45 6274   6.028   3.567   1.221
   15CHTO   H46 6275   6.109   3.500   1.362
   15CHTO   C33 6276   6.257   3.354   1.119
   15CHTO   H61 6277   6.276   3.436   1.047
   15CHTO   O18 6278   6.253   3.230   1.047
   15CHTO   C28 6279   6.159   3.227   0.939
   15CHTO   H56 6280   6.172   3.314   0.874
   15CHTO   C35 6281   6.186   3.100   0.854
   15CHTO   O24 6282   6.316   3.099   0.795
   15CHTO   H39 6283   6.328   3.021   0.746
   15CHTO    O9 6284   6.367   3.358   1.213
   15CHTO   C13 6285   6.512   3.369   1.141
   15CHTO   H26 6286   6.503   3.440   1.057
   15CHTO   C11 6287   6.557   3.225   1.090
   15CHTO   H24 6288   6.500   3.201   0.999
   15CHTO    O8 6289   6.526   3.125   1.189
   15CHTO    H3 6290   6.433   3.118   1.200
   15CHTO    C9 6291   6.708   3.230   1.055
   15CHTO   H22 6292   6.720   3.316   0.989
   15CHTO    N2 6293   6.754   3.114   0.974
   15CHTO   H10 6294   6.694   3.106   0.885
   15CHTO   H11 6295   6.748   3.023   1.033
   15CHTO    C7 6296   6.790   3.257   1.188
   15CHTO   H20 6297   6.878   3.316   1.153
   15CHTO    O4 6298   6.717   3.333   1.286
   15CHTO   C14 6299   6.624   3.432   1.238
   15CHTO   H27 6300   6.681   3.508   1.180
   15CHTO   C18 6301   6.566   3.504   1.362
   15CHTO   O13 6302   6.480   3.612   1.324
   15CHTO    H7 6303   6.446   3.653   1.402
   15CHTO    O2 6304   6.841   3.121   1.261
   15CHTO    C1 6305   6.966   3.134   1.330
   15CHTO   H14 6306   6.987   3.242   1.349
   15CHTO    C2 6307   7.088   3.073   1.249
   15CHTO   H15 6308   7.057   2.972   1.218
   15CHTO    O6 6309   7.110   3.154   1.132
   15CHTO    H1 6310   7.175   3.115   1.078
   15CHTO    C3 6311   7.220   3.064   1.341
   15CHTO   H16 6312   7.255   3.166   1.365
   15CHTO    N1 6313   7.333   2.994   1.271
   15CHTO    H8 6314   7.360   3.048   1.182
   15CHTO    H9 6315   7.303   2.893   1.245
   15CHTO    C4 6316   7.183   2.997   1.479
   15CHTO   H17 6317   7.154   2.894   1.461
   15CHTO    O1 6318   7.076   3.070   1.541
   15CHTO    C5 6319   6.952   3.066   1.469
   15CHTO   H18 6320   6.924   2.962   1.454
   15CHTO   C16 6321   6.844   3.134   1.557
   15CHTO   O11 6322   6.875   3.271   1.586
   15CHTO    H5 6323   6.951   3.276   1.642
   15CHTO    O3 6324   7.288   3.006   1.578
   15CHTO    C6 6325   7.349   2.879   1.623
   15CHTO   H19 6326   7.339   2.800   1.548
   15CHTO    C8 6327   7.501   2.903   1.647
   15CHTO   H21 6328   7.512   2.989   1.713
   15CHTO    O7 6329   7.560   2.932   1.519
   15CHTO    H2 6330   7.651   2.954   1.529
   15CHTO   C12 6331   7.569   2.777   1.716
   15CHTO   H25 6332   7.565   2.694   1.642
   15CHTO    N3 6333   7.714   2.802   1.747
   15CHTO   H12 6334   7.723   2.885   1.816
   15CHTO   H13 6335   7.758   2.713   1.788
   15CHTO   C15 6336   7.485   2.735   1.842
   15CHTO   H28 6337   7.489   2.811   1.921
   15CHTO   O10 6338   7.527   2.598   1.900
   15CHTO    H4 6339   7.481   2.581   1.980
   15CHTO    O5 6340   7.348   2.711   1.804
   15CHTO   C10 6341   7.280   2.828   1.754
   15CHTO   H23 6342   7.283   2.906   1.830
   15CHTO   C17 6343   7.133   2.788   1.732
   15CHTO   O12 6344   7.070   2.745   1.853
   15CHTO    H6 6345   6.980   2.724   1.836
   16CHTO  H203 6346   5.241   2.139   0.860
   16CHTO   O82 6347   5.254   2.228   0.832
   16CHTO  C123 6348   5.306   2.307   0.940
   16CHTO  H227 6349   5.245   2.288   1.031
   16CHTO   O77 6350   5.441   2.254   0.960
   16CHTO  C118 6351   5.514   2.316   1.067
   16CHTO  H222 6352   5.457   2.308   1.161
   16CHTO  C125 6353   5.651   2.240   1.084
   16CHTO   O84 6354   5.631   2.104   1.125
   16CHTO  H205 6355   5.600   2.102   1.213
   16CHTO  C114 6356   5.536   2.465   1.032
   16CHTO  H218 6357   5.590   2.470   0.937
   16CHTO  C116 6358   5.399   2.537   1.012
   16CHTO  H220 6359   5.345   2.540   1.110
   16CHTO   O79 6360   5.423   2.673   0.974
   16CHTO  H201 6361   5.462   2.721   1.046
   16CHTO  C120 6362   5.311   2.460   0.905
   16CHTO  H224 6363   5.362   2.474   0.807
   16CHTO   N21 6364   5.175   2.520   0.893
   16CHTO  H211 6365   5.103   2.445   0.863
   16CHTO  H212 6366   5.177   2.601   0.822
   16CHTO   O75 6367   5.616   2.518   1.139
   16CHTO  C112 6368   5.726   2.633   1.090
   16CHTO  H216 6369   5.671   2.719   1.046
   16CHTO   O73 6370   5.813   2.572   0.994
   16CHTO  C113 6371   5.912   2.660   0.939
   16CHTO  H217 6372   5.861   2.749   0.896
   16CHTO  C124 6373   5.982   2.588   0.823
   16CHTO   O83 6374   6.053   2.470   0.864
   16CHTO  H204 6375   6.127   2.494   0.917
   16CHTO  C109 6376   6.009   2.707   1.052
   16CHTO  H213 6377   6.059   2.616   1.091
   16CHTO  C110 6378   5.927   2.775   1.165
   16CHTO  H214 6379   5.887   2.869   1.127
   16CHTO   O78 6380   6.017   2.807   1.273
   16CHTO  H200 6381   5.972   2.856   1.340
   16CHTO  C111 6382   5.811   2.683   1.213
   16CHTO  H215 6383   5.854   2.594   1.261
   16CHTO   N19 6384   5.721   2.747   1.314
   16CHTO  H207 6385   5.778   2.771   1.403
   16CHTO  H208 6386   5.678   2.837   1.273
   16CHTO   O74 6387   6.111   2.798   1.000
   16CHTO  C115 6388   6.262   2.727   0.976
   16CHTO  H219 6389   6.267   2.628   1.021
   16CHTO   O76 6390   6.291   2.706   0.825
   16CHTO  C122 6391   6.419   2.652   0.788
   16CHTO  H226 6392   6.430   2.673   0.682
   16CHTO  C126 6393   6.420   2.494   0.800
   16CHTO   O85 6394   6.403   2.443   0.933
   16CHTO  H206 6395   6.318   2.464   0.965
   16CHTO  C121 6396   6.540   2.720   0.862
   16CHTO  H225 6397   6.629   2.654   0.852
   16CHTO   O81 6398   6.571   2.844   0.796
   16CHTO  H202 6399   6.600   2.828   0.708
   16CHTO  C119 6400   6.515   2.746   1.014
   16CHTO  H223 6401   6.513   2.647   1.060
   16CHTO  C117 6402   6.375   2.814   1.041
   16CHTO  H221 6403   6.362   2.914   1.000
   16CHTO   N20 6404   6.350   2.828   1.188
   16CHTO  H209 6405   6.255   2.876   1.204
   16CHTO  H210 6406   6.428   2.887   1.234
   16CHTO   O80 6407   6.646   2.813   1.087
   16CHTO  C103 6408   6.769   2.720   1.124
   16CHTO  H190 6409   6.740   2.615   1.115
   16CHTO  C101 6410   6.905   2.741   1.047
   16CHTO  H188 6411   6.937   2.845   1.058
   16CHTO   O68 6412   6.883   2.712   0.897
   16CHTO  H168 6413   6.961   2.732   0.849
   16CHTO   C99 6414   7.020   2.645   1.109
   16CHTO  H186 6415   6.997   2.541   1.082
   16CHTO   N17 6416   7.157   2.672   1.052
   16CHTO  H174 6417   7.192   2.769   1.084
   16CHTO  H175 6418   7.226   2.594   1.083
   16CHTO   C97 6419   7.022   2.648   1.265
   16CHTO  H184 6420   7.073   2.740   1.298
   16CHTO   O64 6421   6.888   2.640   1.317
   16CHTO  C104 6422   6.802   2.746   1.275
   16CHTO  H191 6423   6.848   2.844   1.286
   16CHTO  C108 6424   6.679   2.747   1.367
   16CHTO   O71 6425   6.620   2.877   1.371
   16CHTO  H171 6426   6.545   2.875   1.428
   16CHTO   O62 6427   7.094   2.534   1.318
   16CHTO   C91 6428   7.089   2.509   1.460
   16CHTO  H178 6429   7.081   2.606   1.509
   16CHTO   C92 6430   7.226   2.450   1.507
   16CHTO  H179 6431   7.254   2.368   1.439
   16CHTO   O66 6432   7.326   2.552   1.488
   16CHTO  H166 6433   7.310   2.625   1.545
   16CHTO   C93 6434   7.220   2.398   1.656
   16CHTO  H180 6435   7.197   2.486   1.719
   16CHTO   N16 6436   7.349   2.345   1.708
   16CHTO  H172 6437   7.338   2.315   1.811
   16CHTO  H173 6438   7.382   2.262   1.648
   16CHTO   C94 6439   7.104   2.291   1.674
   16CHTO  H181 6440   7.143   2.189   1.676
   16CHTO   O61 6441   7.009   2.291   1.566
   16CHTO   C95 6442   6.968   2.417   1.507
   16CHTO  H182 6443   6.908   2.395   1.419
   16CHTO  C106 6444   6.872   2.496   1.605
   16CHTO   O69 6445   6.746   2.430   1.620
   16CHTO  H169 6446   6.699   2.433   1.540
   16CHTO   O63 6447   7.027   2.321   1.809
   16CHTO   C96 6448   7.009   2.199   1.909
   16CHTO  H183 6449   7.108   2.172   1.944
   16CHTO   C98 6450   6.941   2.070   1.850
   16CHTO  H185 6451   6.996   2.036   1.761
   16CHTO   O67 6452   6.956   1.964   1.946
   16CHTO  H167 6453   7.047   1.940   1.955
   16CHTO  C102 6454   6.784   2.086   1.819
   16CHTO  H189 6455   6.736   1.994   1.856
   16CHTO   N18 6456   6.747   2.097   1.676
   16CHTO  H176 6457   6.681   2.016   1.648
   16CHTO  H177 6458   6.836   2.094   1.614
   16CHTO  C105 6459   6.726   2.204   1.904
   16CHTO  H192 6460   6.744   2.298   1.852
   16CHTO   O65 6461   6.787   2.211   2.033
   16CHTO  C100 6462   6.924   2.256   2.032
   16CHTO  H187 6463   6.922   2.366   2.025
   16CHTO  C107 6464   6.987   2.219   2.167
   16CHTO   O70 6465   6.922   2.286   2.275
   16CHTO  H170 6466   6.962   2.261   2.357
   16CHTO   O57 6467   6.573   2.179   1.921
   16CHTO   C85 6468   6.484   2.291   1.907
   16CHTO  H157 6469   6.512   2.342   1.813
   16CHTO   C83 6470   6.506   2.396   2.021
   16CHTO  H155 6471   6.610   2.431   2.015
   16CHTO   O56 6472   6.492   2.333   2.149
   16CHTO  H135 6473   6.514   2.393   2.218
   16CHTO   C81 6474   6.411   2.517   1.997
   16CHTO  H153 6475   6.433   2.558   1.898
   16CHTO   N14 6476   6.440   2.630   2.090
   16CHTO  H141 6477   6.477   2.715   2.036
   16CHTO  H142 6478   6.352   2.658   2.144
   16CHTO   C79 6479   6.261   2.469   1.998
   16CHTO  H151 6480   6.201   2.554   1.966
   16CHTO   O52 6481   6.238   2.362   1.901
   16CHTO   C86 6482   6.332   2.250   1.908
   16CHTO  H158 6483   6.305   2.197   2.002
   16CHTO   C90 6484   6.308   2.149   1.793
   16CHTO   O60 6485   6.191   2.069   1.816
   16CHTO  H138 6486   6.181   2.008   1.745
   16CHTO   O50 6487   6.213   2.430   2.128
   16CHTO   C73 6488   6.107   2.391   2.217
   16CHTO  H145 6489   6.131   2.292   2.258
   16CHTO   C74 6490   5.971   2.381   2.142
   16CHTO  H146 6491   5.986   2.313   2.058
   16CHTO   O54 6492   5.877   2.317   2.231
   16CHTO  H133 6493   5.795   2.304   2.187
   16CHTO   C75 6494   5.924   2.525   2.095
   16CHTO  H147 6495   5.998   2.564   2.023
   16CHTO   N13 6496   5.794   2.528   2.023
   16CHTO  H139 6497   5.807   2.568   1.923
   16CHTO  H140 6498   5.752   2.428   2.014
   16CHTO   C76 6499   5.924   2.624   2.220
   16CHTO  H148 6500   5.847   2.591   2.290
   16CHTO   O49 6501   6.055   2.622   2.286
   16CHTO   C77 6502   6.094   2.493   2.335
   16CHTO  H149 6503   6.020   2.455   2.406
   16CHTO   C88 6504   6.224   2.511   2.414
   16CHTO   O58 6505   6.265   2.388   2.483
   16CHTO  H136 6506   6.203   2.367   2.550
   16CHTO   O51 6507   5.904   2.777   2.174
   16CHTO   C78 6508   5.891   2.873   2.300
   16CHTO  H150 6509   5.915   2.819   2.394
   16CHTO   C80 6510   5.746   2.927   2.310
   16CHTO  H152 6511   5.721   2.980   2.215
   16CHTO   O55 6512   5.659   2.812   2.322
   16CHTO  H134 6513   5.570   2.840   2.321
   16CHTO   C84 6514   5.732   3.026   2.432
   16CHTO  H156 6515   5.748   2.969   2.523
   16CHTO   N15 6516   5.594   3.085   2.442
   16CHTO  H143 6517   5.549   3.061   2.536
   16CHTO  H144 6518   5.596   3.192   2.431
   16CHTO   C87 6519   5.841   3.135   2.424
   16CHTO  H159 6520   5.822   3.202   2.339
   16CHTO   O53 6521   5.980   3.068   2.407
   16CHTO   C82 6522   5.989   2.990   2.287
   16CHTO  H154 6523   5.967   3.052   2.201
   16CHTO   C89 6524   6.137   2.945   2.273
   16CHTO   O59 6525   6.164   2.888   2.144
   16CHTO  H137 6526   6.119   2.806   2.135
   16CHTO   O45 6527   5.846   3.223   2.560
   16CHTO   C67 6528   5.941   3.331   2.554
   16CHTO  H124 6529   6.019   3.308   2.482
   16CHTO   C65 6530   5.872   3.465   2.512
   16CHTO  H122 6531   5.769   3.460   2.549
   16CHTO   O44 6532   5.868   3.464   2.368
   16CHTO  H102 6533   5.954   3.479   2.333
   16CHTO   C63 6534   5.934   3.592   2.583
   16CHTO  H120 6535   5.893   3.599   2.684
   16CHTO   N11 6536   5.895   3.726   2.527
   16CHTO  H108 6537   5.789   3.732   2.518
   16CHTO  H109 6538   5.930   3.804   2.591
   16CHTO   C61 6539   6.088   3.570   2.601
   16CHTO  H118 6540   6.128   3.659   2.653
   16CHTO   O40 6541   6.116   3.456   2.687
   16CHTO   C68 6542   6.017   3.348   2.692
   16CHTO  H125 6543   5.944   3.370   2.773
   16CHTO   C72 6544   6.090   3.218   2.732
   16CHTO   O48 6545   6.145   3.224   2.864
   16CHTO  H105 6546   6.214   3.287   2.867
   16CHTO   O38 6547   6.158   3.553   2.476
   16CHTO   C55 6548   6.302   3.558   2.484
   16CHTO  H112 6549   6.336   3.538   2.587
   16CHTO   C56 6550   6.355   3.697   2.430
   16CHTO  H113 6551   6.313   3.710   2.329
   16CHTO   O42 6552   6.301   3.804   2.511
   16CHTO  H100 6553   6.208   3.809   2.501
   16CHTO   C57 6554   6.513   3.701   2.427
   16CHTO  H114 6555   6.546   3.699   2.530
   16CHTO   N10 6556   6.569   3.824   2.365
   16CHTO  H106 6557   6.665   3.805   2.321
   16CHTO  H107 6558   6.502   3.862   2.289
   16CHTO   C58 6559   6.566   3.573   2.356
   16CHTO  H115 6560   6.544   3.579   2.247
   16CHTO   O37 6561   6.509   3.453   2.411
   16CHTO   C59 6562   6.366   3.445   2.398
   16CHTO  H116 6563   6.337   3.455   2.293
   16CHTO   C70 6564   6.321   3.307   2.447
   16CHTO   O46 6565   6.377   3.200   2.370
   16CHTO  H103 6566   6.346   3.118   2.403
   16CHTO   O39 6567   6.723   3.558   2.380
   16CHTO   C60 6568   6.789   3.469   2.288
   16CHTO  H117 6569   6.718   3.393   2.254
   16CHTO   C62 6570   6.840   3.543   2.161
   16CHTO  H119 6571   6.749   3.579   2.108
   16CHTO   O43 6572   6.919   3.657   2.200
   16CHTO  H101 6573   6.944   3.706   2.124
   16CHTO   C66 6574   6.919   3.438   2.068
   16CHTO  H123 6575   6.855   3.351   2.052
   16CHTO   N12 6576   6.948   3.493   1.934
   16CHTO  H110 6577   6.999   3.419   1.874
   16CHTO  H111 6578   7.008   3.583   1.943
   16CHTO   C69 6579   7.045   3.391   2.146
   16CHTO  H126 6580   7.108   3.478   2.173
   16CHTO   O41 6581   6.998   3.319   2.273
   16CHTO   C64 6582   6.902   3.394   2.365
   16CHTO  H121 6583   6.958   3.467   2.426
   16CHTO   C71 6584   6.838   3.290   2.459
   16CHTO   O47 6585   6.937   3.225   2.540
   16CHTO  H104 6586   6.895   3.163   2.596
   16CHTO   O34 6587   7.133   3.291   2.062
   16CHTO   C49 6588   7.190   3.149   2.059
   16CHTO   H91 6589   7.275   3.152   1.991
   16CHTO   C47 6590   7.083   3.052   2.004
   16CHTO   H89 6591   7.135   2.955   1.989
   16CHTO   O33 6592   7.040   3.101   1.875
   16CHTO   H70 6593   6.981   3.040   1.835
   16CHTO   C45 6594   6.964   3.034   2.110
   16CHTO   H87 6595   6.922   3.134   2.131
   16CHTO    N8 6596   6.853   2.949   2.059
   16CHTO   H75 6597   6.814   2.990   1.967
   16CHTO   H76 6598   6.889   2.849   2.041
   16CHTO   C43 6599   7.024   2.982   2.250
   16CHTO   H85 6600   6.940   2.986   2.320
   16CHTO   O29 6601   7.134   3.065   2.293
   16CHTO   C50 6602   7.237   3.102   2.199
   16CHTO   H92 6603   7.292   3.186   2.245
   16CHTO   C54 6604   7.346   2.990   2.192
   16CHTO   O36 6605   7.460   3.029   2.115
   16CHTO   H72 6606   7.437   3.037   2.025
   16CHTO   O27 6607   7.064   2.843   2.245
   16CHTO   C37 6608   7.119   2.750   2.340
   16CHTO   H79 6609   7.213   2.790   2.382
   16CHTO   C38 6610   7.023   2.723   2.460
   16CHTO   H80 6611   6.927   2.687   2.420
   16CHTO   O31 6612   7.000   2.848   2.529
   16CHTO   H68 6613   6.950   2.906   2.475
   16CHTO   C39 6614   7.083   2.615   2.559
   16CHTO   H81 6615   7.167   2.662   2.610
   16CHTO    N7 6616   6.986   2.574   2.667
   16CHTO   H73 6617   6.899   2.529   2.623
   16CHTO   H74 6618   7.034   2.505   2.735
   16CHTO   C40 6619   7.140   2.489   2.483
   16CHTO   H82 6620   7.060   2.420   2.456
   16CHTO   O26 6621   7.217   2.528   2.368
   16CHTO   C41 6622   7.148   2.614   2.272
   16CHTO   H83 6623   7.053   2.567   2.242
   16CHTO   C52 6624   7.236   2.627   2.146
   16CHTO   O35 6625   7.251   2.498   2.073
   16CHTO   H71 6626   7.298   2.436   2.127
   16CHTO   O28 6627   7.238   2.419   2.563
   16CHTO   C42 6628   7.274   2.278   2.543
   16CHTO   H84 6629   7.372   2.271   2.591
   16CHTO   C44 6630   7.297   2.233   2.395
   16CHTO   H86 6631   7.209   2.260   2.336
   16CHTO   O32 6632   7.408   2.310   2.345
   16CHTO   H69 6633   7.420   2.294   2.253
   16CHTO   C48 6634   7.322   2.077   2.378
   16CHTO   H90 6635   7.418   2.053   2.422
   16CHTO    N9 6636   7.332   2.036   2.233
   16CHTO   H77 6637   7.414   2.087   2.186
   16CHTO   H78 6638   7.239   2.059   2.182
   16CHTO   C51 6639   7.210   1.998   2.456
   16CHTO   H93 6640   7.113   2.022   2.412
   16CHTO   O30 6641   7.217   2.036   2.593
   16CHTO   C46 6642   7.178   2.181   2.619
   16CHTO   H88 6643   7.076   2.197   2.586
   16CHTO   C53 6644   7.189   2.198   2.773
   16CHTO   O72 6645   7.137   2.323   2.819
   16CHTO  H199 6646   7.148   2.329   2.912
   16CHTO   O22 6647   7.233   1.855   2.454
   16CHTO   C31 6648   7.131   1.754   2.486
   16CHTO   H59 6649   7.179   1.655   2.467
   16CHTO   C29 6650   7.085   1.753   2.634
   16CHTO   H57 6651   7.037   1.850   2.655
   16CHTO   O21 6652   7.201   1.746   2.718
   16CHTO   H37 6653   7.244   1.663   2.708
   16CHTO   C27 6654   6.981   1.637   2.662
   16CHTO   H55 6655   7.031   1.540   2.647
   16CHTO    N5 6656   6.927   1.641   2.800
   16CHTO   H43 6657   7.008   1.636   2.872
   16CHTO   H44 6658   6.860   1.557   2.816
   16CHTO   C25 6659   6.864   1.645   2.557
   16CHTO   H53 6660   6.807   1.737   2.573
   16CHTO   O17 6661   6.917   1.648   2.421
   16CHTO   C32 6662   7.005   1.759   2.393
   16CHTO   H60 6663   6.951   1.852   2.412
   16CHTO   C36 6664   7.042   1.755   2.243
   16CHTO   O25 6665   7.109   1.633   2.206
   16CHTO   H40 6666   7.049   1.561   2.211
   16CHTO   O15 6667   6.766   1.517   2.567
   16CHTO   C19 6668   6.624   1.512   2.600
   16CHTO   H47 6669   6.615   1.575   2.691
   16CHTO   C20 6670   6.529   1.569   2.491
   16CHTO   H48 6671   6.538   1.514   2.396
   16CHTO   O19 6672   6.569   1.705   2.467
   16CHTO   H35 6673   6.520   1.742   2.395
   16CHTO   C21 6674   6.377   1.563   2.537
   16CHTO   H49 6675   6.364   1.632   2.620
   16CHTO    N4 6676   6.283   1.606   2.430
   16CHTO   H41 6677   6.182   1.601   2.466
   16CHTO   H42 6678   6.305   1.708   2.400
   16CHTO   C22 6679   6.344   1.421   2.590
   16CHTO   H50 6680   6.342   1.351   2.507
   16CHTO   O14 6681   6.439   1.378   2.688
   16CHTO   C23 6682   6.575   1.370   2.641
   16CHTO   H51 6683   6.576   1.300   2.556
   16CHTO   C34 6684   6.662   1.310   2.752
   16CHTO   O23 6685   6.622   1.176   2.782
   16CHTO   H38 6686   6.676   1.141   2.850
   16CHTO   O16 6687   6.219   1.420   2.662
   16CHTO   C24 6688   6.119   1.298   2.627
   16CHTO   H52 6689   6.160   1.232   2.551
   16CHTO   C26 6690   5.985   1.357   2.577
   16CHTO   H54 6691   5.955   1.438   2.647
   16CHTO   O20 6692   6.008   1.417   2.448
   16CHTO   H36 6693   6.032   1.351   2.385
   16CHTO   C30 6694   5.870   1.251   2.574
   16CHTO   H58 6695   5.890   1.177   2.495
   16CHTO    N6 6696   5.741   1.316   2.538
   16CHTO   H45 6697   5.714   1.389   2.613
   16CHTO   H46 6698   5.662   1.241   2.532
   16CHTO   C33 6699   5.864   1.173   2.708
   16CHTO   H61 6700   5.840   1.242   2.790
   16CHTO   O18 6701   5.994   1.117   2.733
   16CHTO   C28 6702   6.099   1.212   2.754
   16CHTO   H56 6703   6.074   1.277   2.838
   16CHTO   C35 6704   6.228   1.135   2.791
   16CHTO   O24 6705   6.270   1.039   2.693
   16CHTO   H39 6706   6.207   0.969   2.689
   16CHTO    O9 6707   5.761   1.071   2.712
   16CHTO   C13 6708   5.613   1.106   2.787
   16CHTO   H26 6709   5.558   1.176   2.720
   16CHTO   C11 6710   5.631   1.166   2.933
   16CHTO   H24 6711   5.679   1.265   2.923
   16CHTO    O8 6712   5.720   1.083   3.010
   16CHTO    H3 6713   5.683   0.999   3.024
   16CHTO    C9 6714   5.490   1.187   2.994
   16CHTO   H22 6715   5.436   1.249   2.922
   16CHTO    N2 6716   5.491   1.265   3.120
   16CHTO   H10 6717   5.540   1.209   3.198
   16CHTO   H11 6718   5.390   1.289   3.149
   16CHTO    C7 6719   5.417   1.048   3.006
   16CHTO   H20 6720   5.313   1.075   3.034
   16CHTO    O4 6721   5.411   0.978   2.880
   16CHTO   C14 6722   5.524   0.974   2.790
   16CHTO   H27 6723   5.481   0.961   2.689
   16CHTO   C18 6724   5.609   0.846   2.818
   16CHTO   O13 6725   5.533   0.727   2.791
   16CHTO    H7 6726   5.586   0.652   2.810
   16CHTO    O2 6727   5.485   0.951   3.121
   16CHTO    C1 6728   5.395   0.864   3.193
   16CHTO   H14 6729   5.326   0.816   3.120
   16CHTO    C2 6730   5.308   0.935   3.306
   16CHTO   H15 6731   5.379   0.991   3.369
   16CHTO    O6 6732   5.215   1.026   3.246
   16CHTO    H1 6733   5.261   1.097   3.205
   16CHTO    C3 6734   5.230   0.826   3.396
   16CHTO   H16 6735   5.155   0.777   3.333
   16CHTO    N1 6736   5.156   0.889   3.511
   16CHTO    H8 6737   5.051   0.866   3.505
   16CHTO    H9 6738   5.195   0.855   3.606
   16CHTO    C4 6739   5.329   0.712   3.441
   16CHTO   H17 6740   5.401   0.754   3.512
   16CHTO    O1 6741   5.396   0.657   3.327
   16CHTO    C5 6742   5.479   0.749   3.256
   16CHTO   H18 6743   5.551   0.794   3.325
   16CHTO   C16 6744   5.557   0.669   3.148
   16CHTO   O11 6745   5.647   0.576   3.208
   16CHTO    H5 6746   5.692   0.528   3.141
   16CHTO    O3 6747   5.259   0.600   3.500
   16CHTO    C6 6748   5.333   0.527   3.603
   16CHTO   H19 6749   5.438   0.558   3.611
   16CHTO    C8 6750   5.266   0.549   3.742
   16CHTO   H21 6751   5.160   0.523   3.734
   16CHTO    O7 6752   5.278   0.689   3.774
   16CHTO    H2 6753   5.223   0.740   3.718
   16CHTO   C12 6754   5.334   0.458   3.853
   16CHTO   H25 6755   5.437   0.497   3.866
   16CHTO    N3 6756   5.264   0.472   3.986
   16CHTO   H12 6757   5.223   0.378   4.018
   16CHTO   H13 6758   5.333   0.511   0.019
   16CHTO   C15 6759   5.343   0.310   3.802
   16CHTO   H28 6760   5.245   0.261   3.801
   16CHTO   O10 6761   5.440   0.226   3.888
   16CHTO    H4 6762   5.435   0.135   3.864
   16CHTO    O5 6763   5.403   0.301   3.672
   16CHTO   C10 6764   5.334   0.375   3.570
   16CHTO   H23 6765   5.232   0.338   3.564
   16CHTO   C17 6766   5.401   0.343   3.435
   16CHTO   O12 6767   5.539   0.381   3.432
   16CHTO    H6 6768   5.575   0.360   3.348
   17CHTO  H203 6769   6.171   3.534   0.343
   17CHTO   O82 6770   6.103   3.576   0.294
   17CHTO  C123 6771   6.034   3.672   0.377
   17CHTO  H227 6772   6.010   3.624   0.473
   17CHTO   O77 6773   6.132   3.778   0.396
   17CHTO  C118 6774   6.088   3.885   0.482
   17CHTO  H222 6775   6.061   3.844   0.580
   17CHTO  C125 6776   6.210   3.983   0.501
   17CHTO   O84 6777   6.257   4.039   0.377
   17CHTO  H205 6778   6.192   4.095   0.341
   17CHTO  C114 6779   5.965   3.955   0.421
   17CHTO  H218 6780   5.994   3.999   0.325
   17CHTO  C116 6781   5.851   3.852   0.393
   17CHTO  H220 6782   5.810   3.817   0.490
   17CHTO   O79 6783   5.745   3.923   0.327
   17CHTO  H201 6784   5.671   3.866   0.315
   17CHTO  C120 6785   5.904   3.730   0.308
   17CHTO  H224 6786   5.929   3.769   0.207
   17CHTO   N21 6787   5.799   3.627   0.291
   17CHTO  H211 6788   5.815   3.573   0.198
   17CHTO  H212 6789   5.798   3.558   0.374
   17CHTO   O75 6790   5.925   4.056   0.515
   17CHTO  C112 6791   5.907   4.203   0.449
   17CHTO  H216 6792   5.874   4.191   0.344
   17CHTO   O73 6793   6.033   4.269   0.458
   17CHTO  C113 6794   6.038   4.392   0.385
   17CHTO  H217 6795   6.011   4.371   0.280
   17CHTO  C124 6796   6.183   4.440   0.386
   17CHTO   O83 6797   6.236   4.464   0.517
   17CHTO  H204 6798   6.244   4.384   0.564
   17CHTO  C109 6799   5.939   4.496   0.444
   17CHTO  H213 6800   5.980   4.529   0.540
   17CHTO  C110 6801   5.796   4.435   0.466
   17CHTO  H214 6802   5.744   4.433   0.370
   17CHTO   O78 6803   5.721   4.525   0.549
   17CHTO  H200 6804   5.632   4.495   0.557
   17CHTO  C111 6805   5.801   4.291   0.526
   17CHTO  H215 6806   5.833   4.297   0.631
   17CHTO   N19 6807   5.668   4.223   0.526
   17CHTO  H207 6808   5.630   4.216   0.425
   17CHTO  H208 6809   5.599   4.278   0.587
   17CHTO   O74 6810   5.930   4.612   0.353
   17CHTO  C115 6811   5.971   4.751   0.418
   17CHTO  H219 6812   5.938   4.758   0.522
   17CHTO   O76 6813   6.132   4.770   0.424
   17CHTO  C122 6814   6.188   4.800   0.296
   17CHTO  H226 6815   6.167   4.716   0.230
   17CHTO  C126 6816   6.344   4.809   0.305
   17CHTO   O85 6817   6.406   4.684   0.337
   17CHTO  H206 6818   6.499   4.695   0.340
   17CHTO  C121 6819   6.129   4.934   0.235
   17CHTO  H225 6820   6.207   5.013   0.238
   17CHTO   O81 6821   6.096   4.914   0.097
   17CHTO  H202 6822   6.028   4.850   0.088
   17CHTO  C119 6823   6.005   4.985   0.315
   17CHTO  H223 6824   6.042   5.009   0.415
   17CHTO  C117 6825   5.901   4.867   0.334
   17CHTO  H221 6826   5.869   4.819   0.241
   17CHTO   N20 6827   5.774   4.914   0.399
   17CHTO  H209 6828   5.755   4.860   0.491
   17CHTO  H210 6829   5.776   5.020   0.418
   17CHTO   O80 6830   5.954   5.129   0.265
   17CHTO  C103 6831   6.051   5.254   0.283
   17CHTO  H190 6832   6.138   5.224   0.340
   17CHTO  C101 6833   6.100   5.325   0.152
   17CHTO  H188 6834   6.014   5.358   0.094
   17CHTO   O68 6835   6.180   5.223   0.066
   17CHTO  H168 6836   6.256   5.195   0.112
   17CHTO   C99 6837   6.190   5.453   0.190
   17CHTO  H186 6838   6.283   5.416   0.239
   17CHTO   N17 6839   6.233   5.534   0.072
   17CHTO  H174 6840   6.303   5.611   0.103
   17CHTO  H175 6841   6.278   5.470   4.038
   17CHTO   C97 6842   6.119   5.542   0.297
   17CHTO  H184 6843   6.041   5.601   0.248
   17CHTO   O64 6844   6.067   5.464   0.406
   17CHTO  C104 6845   5.974   5.361   0.369
   17CHTO  H191 6846   5.891   5.400   0.311
   17CHTO  C108 6847   5.913   5.299   0.496
   17CHTO   O71 6848   5.839   5.396   0.571
   17CHTO  H171 6849   5.761   5.419   0.524
   17CHTO   O62 6850   6.216   5.629   0.360
   17CHTO   C91 6851   6.168   5.748   0.425
   17CHTO  H178 6852   6.085   5.788   0.366
   17CHTO   C92 6853   6.283   5.855   0.416
   17CHTO  H179 6854   6.325   5.857   0.314
   17CHTO   O66 6855   6.228   5.985   0.438
   17CHTO  H166 6856   6.169   6.008   0.368
   17CHTO   C93 6857   6.395   5.833   0.525
   17CHTO  H180 6858   6.456   5.925   0.525
   17CHTO   N16 6859   6.492   5.726   0.490
   17CHTO  H172 6860   6.568   5.719   0.566
   17CHTO  H173 6861   6.440   5.632   0.479
   17CHTO   C94 6862   6.332   5.813   0.669
   17CHTO  H181 6863   6.355   5.715   0.710
   17CHTO   O61 6864   6.188   5.822   0.668
   17CHTO   C95 6865   6.125   5.729   0.577
   17CHTO  H182 6866   6.151   5.627   0.608
   17CHTO  C106 6867   5.969   5.741   0.594
   17CHTO   O69 6868   5.926   5.685   0.718
   17CHTO  H169 6869   5.937   5.592   0.717
   17CHTO   O63 6870   6.398   5.925   0.764
   17CHTO   C96 6871   6.307   5.991   0.875
   17CHTO  H183 6872   6.219   5.929   0.890
   17CHTO   C98 6873   6.261   6.135   0.839
   17CHTO  H185 6874   6.347   6.195   0.806
   17CHTO   O67 6875   6.175   6.126   0.723
   17CHTO  H167 6876   6.224   6.099   0.648
   17CHTO  C102 6877   6.185   6.209   0.960
   17CHTO  H189 6878   6.088   6.160   0.969
   17CHTO   N18 6879   6.155   6.353   0.938
   17CHTO  H176 6880   6.091   6.364   0.851
   17CHTO  H177 6881   6.247   6.407   0.921
   17CHTO  C105 6882   6.261   6.186   1.094
   17CHTO  H192 6883   6.351   6.248   1.095
   17CHTO   O65 6884   6.301   6.050   1.114
   17CHTO  C100 6885   6.386   5.997   1.011
   17CHTO  H187 6886   6.473   6.062   0.999
   17CHTO  C107 6887   6.437   5.857   1.053
   17CHTO   O70 6888   6.521   5.866   1.169
   17CHTO  H170 6889   6.550   5.780   1.193
   17CHTO   O57 6890   6.158   6.232   1.215
   17CHTO   C85 6891   6.215   6.282   1.336
   17CHTO  H157 6892   6.317   6.317   1.310
   17CHTO   C83 6893   6.237   6.166   1.438
   17CHTO  H155 6894   6.303   6.092   1.392
   17CHTO   O56 6895   6.112   6.099   1.463
   17CHTO  H135 6896   6.081   6.057   1.385
   17CHTO   C81 6897   6.306   6.223   1.565
   17CHTO  H153 6898   6.400   6.269   1.535
   17CHTO   N14 6899   6.346   6.118   1.663
   17CHTO  H141 6900   6.309   6.022   1.634
   17CHTO  H142 6901   6.453   6.113   1.671
   17CHTO   C79 6902   6.216   6.336   1.630
   17CHTO  H151 6903   6.275   6.381   1.711
   17CHTO   O52 6904   6.190   6.442   1.533
   17CHTO   C86 6905   6.131   6.395   1.407
   17CHTO  H158 6906   6.030   6.358   1.436
   17CHTO   C90 6907   6.107   6.515   1.312
   17CHTO   O60 6908   6.016   6.610   1.370
   17CHTO  H138 6909   6.003   6.681   1.310
   17CHTO   O50 6910   6.092   6.288   1.685
   17CHTO   C73 6911   6.016   6.352   1.790
   17CHTO  H145 6912   6.027   6.461   1.783
   17CHTO   C74 6913   6.067   6.306   1.930
   17CHTO  H146 6914   6.175   6.330   1.935
   17CHTO   O54 6915   6.004   6.388   2.030
   17CHTO  H133 6916   5.911   6.373   2.031
   17CHTO   C75 6917   6.041   6.151   1.949
   17CHTO  H147 6918   6.101   6.097   1.875
   17CHTO   N13 6919   6.084   6.097   2.081
   17CHTO  H139 6920   6.129   6.175   2.141
   17CHTO  H140 6921   6.000   6.056   2.135
   17CHTO   C76 6922   5.887   6.118   1.916
   17CHTO  H148 6923   5.825   6.160   1.996
   17CHTO   O49 6924   5.847   6.174   1.787
   17CHTO   C77 6925   5.866   6.315   1.776
   17CHTO  H149 6926   5.809   6.367   1.853
   17CHTO   C88 6927   5.807   6.363   1.642
   17CHTO   O58 6928   5.660   6.338   1.636
   17CHTO  H136 6929   5.644   6.246   1.633
   17CHTO   O51 6930   5.867   5.957   1.902
   17CHTO   C78 6931   5.725   5.915   1.846
   17CHTO  H150 6932   5.667   6.003   1.808
   17CHTO   C80 6933   5.643   5.847   1.958
   17CHTO  H152 6934   5.701   5.761   1.997
   17CHTO   O55 6935   5.628   5.943   2.064
   17CHTO  H134 6936   5.585   5.904   2.137
   17CHTO   C84 6937   5.504   5.794   1.902
   17CHTO  H156 6938   5.446   5.880   1.869
   17CHTO   N15 6939   5.423   5.723   2.007
   17CHTO  H143 6940   5.400   5.790   2.087
   17CHTO  H144 6941   5.477   5.640   2.045
   17CHTO   C87 6942   5.531   5.703   1.780
   17CHTO  H159 6943   5.586   5.615   1.813
   17CHTO   O53 6944   5.614   5.782   1.676
   17CHTO   C82 6945   5.743   5.818   1.727
   17CHTO  H154 6946   5.798   5.729   1.758
   17CHTO   C89 6947   5.822   5.882   1.611
   17CHTO   O59 6948   5.961   5.898   1.642
   17CHTO  H137 6949   6.005   5.938   1.570
   17CHTO   O45 6950   5.393   5.655   1.703
   17CHTO   C67 6951   5.420   5.543   1.618
   17CHTO  H124 6952   5.528   5.535   1.599
   17CHTO   C65 6953   5.373   5.411   1.686
   17CHTO  H122 6954   5.401   5.420   1.791
   17CHTO   O44 6955   5.443   5.300   1.627
   17CHTO  H102 6956   5.425   5.222   1.675
   17CHTO   C63 6957   5.216   5.402   1.682
   17CHTO  H120 6958   5.175   5.494   1.721
   17CHTO   N11 6959   5.157   5.299   1.773
   17CHTO  H108 6960   5.186   5.201   1.741
   17CHTO  H109 6961   5.050   5.306   1.771
   17CHTO   C61 6962   5.173   5.391   1.531
   17CHTO  H118 6963   5.063   5.393   1.530
   17CHTO   O40 6964   5.217   5.507   1.456
   17CHTO   C68 6965   5.352   5.564   1.475
   17CHTO  H125 6966   5.341   5.674   1.462
   17CHTO   C72 6967   5.444   5.516   1.360
   17CHTO   O48 6968   5.569   5.586   1.354
   17CHTO  H105 6969   5.554   5.675   1.328
   17CHTO   O38 6970   5.221   5.269   1.468
   17CHTO   C55 6971   5.149   5.198   1.364
   17CHTO  H112 6972   5.204   5.103   1.353
   17CHTO   C56 6973   5.144   5.280   1.229
   17CHTO  H113 6974   5.096   5.377   1.250
   17CHTO   O42 6975   5.279   5.307   1.186
   17CHTO  H100 6976   5.278   5.363   1.111
   17CHTO   C57 6977   5.064   5.200   1.118
   17CHTO  H114 6978   5.121   5.109   1.096
   17CHTO   N10 6979   5.048   5.274   0.991
   17CHTO  H106 6980   5.041   5.205   0.908
   17CHTO  H107 6981   5.132   5.340   0.974
   17CHTO   C58 6982   4.927   5.159   1.176
   17CHTO  H115 6983   4.867   5.251   1.197
   17CHTO   O37 6984   4.942   5.084   1.297
   17CHTO   C59 6985   5.004   5.156   1.405
   17CHTO  H116 6986   4.943   5.243   1.430
   17CHTO   C70 6987   5.007   5.062   1.526
   17CHTO   O46 6988   4.877   5.029   1.575
   17CHTO  H103 6989   4.837   5.105   1.614
   17CHTO   O39 6990   4.845   5.060   1.074
   17CHTO   C60 6991   4.707   5.098   1.064
   17CHTO  H117 6992   4.674   5.140   1.159
   17CHTO   C62 6993   4.686   5.205   0.953
   17CHTO  H119 6994   4.753   5.290   0.980
   17CHTO   O43 6995   4.730   5.152   0.826
   17CHTO  H101 6996   4.723   5.218   0.760
   17CHTO   C66 6997   4.534   5.254   0.955
   17CHTO  H123 6998   4.513   5.294   1.055
   17CHTO   N12 6999   4.512   5.367   0.860
   17CHTO  H110 7000   4.440   5.340   0.785
   17CHTO  H111 7001   4.481   5.456   0.914
   17CHTO   C69 7002   4.438   5.134   0.933
   17CHTO  H126 7003   4.445   5.098   0.828
   17CHTO   O41 7004   4.472   5.015   1.034
   17CHTO   C64 7005   4.618   4.974   1.036
   17CHTO  H121 7006   4.646   4.930   0.938
   17CHTO   C71 7007   4.637   4.863   1.144
   17CHTO   O47 7008   4.600   4.908   1.275
   17CHTO  H104 7009   4.661   4.973   1.305
   17CHTO   O34 7010   4.292   5.176   0.961
   17CHTO   C49 7011   4.179   5.252   0.899
   17CHTO   H91 7012   4.205   5.357   0.900
   17CHTO   C47 7013   4.052   5.227   0.983
   17CHTO   H89 7014   3.975   5.295   0.939
   17CHTO   O33 7015   4.072   5.267   1.120
   17CHTO   H70 7016   4.139   5.214   1.160
   17CHTO   C45 7017   4.005   5.072   0.975
   17CHTO   H87 7018   4.051   5.018   1.059
   17CHTO    N8 7019   3.857   5.066   0.992
   17CHTO   H75 7020   3.809   5.113   0.907
   17CHTO   H76 7021   3.826   4.963   1.000
   17CHTO   C43 7022   4.063   5.002   0.842
   17CHTO   H85 7023   4.166   4.976   0.868
   17CHTO   O29 7024   4.058   5.096   0.733
   17CHTO   C50 7025   4.150   5.206   0.751
   17CHTO   H92 7026   4.246   5.175   0.707
   17CHTO   C54 7027   4.109   5.326   0.663
   17CHTO   O36 7028   3.978   5.374   0.695
   17CHTO   H72 7029   3.957   5.446   0.639
   17CHTO   O27 7030   4.002   4.876   0.813
   17CHTO   C37 7031   4.041   4.760   0.736
   17CHTO   H79 7032   3.966   4.680   0.748
   17CHTO   C38 7033   4.047   4.796   0.585
   17CHTO   H80 7034   4.104   4.890   0.574
   17CHTO   O31 7035   3.912   4.818   0.541
   17CHTO   H68 7036   3.878   4.897   0.578
   17CHTO   C39 7037   4.117   4.683   0.498
   17CHTO   H81 7038   4.048   4.598   0.494
   17CHTO    N7 7039   4.143   4.727   0.356
   17CHTO   H73 7040   4.109   4.828   0.340
   17CHTO   H74 7041   4.094   4.660   0.287
   17CHTO   C40 7042   4.249   4.633   0.567
   17CHTO   H82 7043   4.324   4.712   0.562
   17CHTO   O26 7044   4.221   4.594   0.703
   17CHTO   C41 7045   4.178   4.707   0.785
   17CHTO   H83 7046   4.253   4.788   0.777
   17CHTO   C52 7047   4.171   4.663   0.933
   17CHTO   O35 7048   4.302   4.646   0.990
   17CHTO   H71 7049   4.344   4.572   0.951
   17CHTO   O28 7050   4.302   4.514   0.504
   17CHTO   C42 7051   4.446   4.485   0.509
   17CHTO   H84 7052   4.453   4.388   0.459
   17CHTO   C44 7053   4.505   4.462   0.653
   17CHTO   H86 7054   4.478   4.548   0.716
   17CHTO   O32 7055   4.439   4.346   0.707
   17CHTO   H69 7056   4.465   4.332   0.796
   17CHTO   C48 7057   4.663   4.449   0.654
   17CHTO   H90 7058   4.691   4.358   0.601
   17CHTO    N9 7059   4.718   4.435   0.793
   17CHTO   H77 7060   4.677   4.347   0.840
   17CHTO   H78 7061   4.826   4.428   0.789
   17CHTO   C51 7062   4.720   4.573   0.577
   17CHTO   H93 7063   4.678   4.662   0.623
   17CHTO   O30 7064   4.677   4.559   0.441
   17CHTO   C46 7065   4.530   4.587   0.426
   17CHTO   H88 7066   4.512   4.688   0.462
   17CHTO   C53 7067   4.496   4.579   0.276
   17CHTO   O72 7068   4.567   4.678   0.201
   17CHTO  H199 7069   4.658   4.658   0.199
   17CHTO   O22 7070   4.863   4.583   0.570
   17CHTO   C31 7071   4.925   4.717   0.561
   17CHTO   H59 7072   5.034   4.699   0.549
   17CHTO   C29 7073   4.880   4.801   0.439
   17CHTO   H57 7074   4.770   4.810   0.445
   17CHTO   O21 7075   4.909   4.726   0.320
   17CHTO   H37 7076   4.870   4.767   0.245
   17CHTO   C27 7077   4.944   4.946   0.436
   17CHTO   H55 7078   5.052   4.936   0.419
   17CHTO    N5 7079   4.887   5.031   0.329
   17CHTO   H43 7080   4.937   5.127   0.327
   17CHTO   H44 7081   4.899   4.982   0.233
   17CHTO   C25 7082   4.927   5.013   0.578
   17CHTO   H53 7083   4.820   5.031   0.597
   17CHTO   O17 7084   4.980   4.925   0.682
   17CHTO   C32 7085   4.910   4.800   0.692
   17CHTO   H60 7086   4.804   4.820   0.710
   17CHTO   C36 7087   4.966   4.724   0.814
   17CHTO   O25 7088   4.940   4.794   0.937
   17CHTO   H40 7089   4.848   4.793   0.956
   17CHTO   O15 7090   5.003   5.143   0.588
   17CHTO   C19 7091   5.052   5.277   0.561
   17CHTO   H47 7092   5.074   5.275   0.454
   17CHTO   C20 7093   4.949   5.391   0.589
   17CHTO   H48 7094   4.918   5.394   0.695
   17CHTO   O19 7095   4.832   5.363   0.510
   17CHTO   H35 7096   4.788   5.287   0.543
   17CHTO   C21 7097   5.012   5.532   0.553
   17CHTO   H49 7098   5.034   5.534   0.446
   17CHTO    N4 7099   4.920   5.647   0.578
   17CHTO   H41 7100   4.968   5.739   0.549
   17CHTO   H42 7101   4.895   5.651   0.683
   17CHTO   C22 7102   5.147   5.546   0.627
   17CHTO   H50 7103   5.128   5.545   0.735
   17CHTO   O14 7104   5.232   5.436   0.591
   17CHTO   C23 7105   5.186   5.307   0.633
   17CHTO   H51 7106   5.175   5.310   0.742
   17CHTO   C34 7107   5.297   5.206   0.600
   17CHTO   O23 7108   5.271   5.077   0.657
   17CHTO   H38 7109   5.197   5.038   0.614
   17CHTO   O16 7110   5.225   5.661   0.588
   17CHTO   C24 7111   5.278   5.756   0.713
   17CHTO   H52 7112   5.217   5.745   0.802
   17CHTO   C26 7113   5.271   5.903   0.666
   17CHTO   H54 7114   5.315   5.909   0.564
   17CHTO   O20 7115   5.131   5.938   0.655
   17CHTO   H36 7116   5.122   6.023   0.618
   17CHTO   C30 7117   5.349   6.001   0.760
   17CHTO   H58 7118   5.299   6.007   0.857
   17CHTO    N6 7119   5.352   6.139   0.706
   17CHTO   H45 7120   5.251   6.177   0.696
   17CHTO   H46 7121   5.399   6.140   0.608
   17CHTO   C33 7122   5.492   5.944   0.786
   17CHTO   H61 7123   5.545   5.934   0.690
   17CHTO   O18 7124   5.475   5.814   0.843
   17CHTO   C28 7125   5.424   5.716   0.753
   17CHTO   H56 7126   5.485   5.710   0.663
   17CHTO   C35 7127   5.429   5.584   0.833
   17CHTO   O24 7128   5.459   5.470   0.752
   17CHTO   H39 7129   5.461   5.393   0.805
   17CHTO    O9 7130   5.576   6.027   0.869
   17CHTO   C13 7131   5.742   5.989   0.852
   17CHTO   H26 7132   5.758   5.945   0.751
   17CHTO   C11 7133   5.795   5.891   0.970
   17CHTO   H24 7134   5.858   5.814   0.923
   17CHTO    O8 7135   5.682   5.822   1.027
   17CHTO    H3 7136   5.640   5.769   0.962
   17CHTO    C9 7137   5.884   5.966   1.072
   17CHTO   H22 7138   5.980   5.982   1.021
   17CHTO    N2 7139   5.924   5.889   1.193
   17CHTO   H10 7140   5.870   5.796   1.199
   17CHTO   H11 7141   5.909   5.948   1.283
   17CHTO    C7 7142   5.820   6.107   1.099
   17CHTO   H20 7143   5.878   6.152   1.182
   17CHTO    O4 7144   5.834   6.189   0.982
   17CHTO   C14 7145   5.822   6.126   0.852
   17CHTO   H27 7146   5.924   6.107   0.814
   17CHTO   C18 7147   5.757   6.228   0.755
   17CHTO   O13 7148   5.842   6.342   0.735
   17CHTO    H7 7149   5.799   6.403   0.678
   17CHTO    O2 7150   5.667   6.095   1.133
   17CHTO    C1 7151   5.624   6.138   1.263
   17CHTO   H14 7152   5.711   6.149   1.332
   17CHTO    C2 7153   5.522   6.034   1.325
   17CHTO   H15 7154   5.448   6.013   1.246
   17CHTO    O6 7155   5.593   5.912   1.356
   17CHTO    H1 7156   5.622   5.870   1.277
   17CHTO    C3 7157   5.448   6.094   1.455
   17CHTO   H16 7158   5.521   6.108   1.536
   17CHTO    N1 7159   5.341   6.001   1.505
   17CHTO    H8 7160   5.294   6.044   1.592
   17CHTO    H9 7161   5.385   5.906   1.532
   17CHTO    C4 7162   5.393   6.237   1.420
   17CHTO   H17 7163   5.317   6.227   1.342
   17CHTO    O1 7164   5.500   6.321   1.374
   17CHTO    C5 7165   5.557   6.278   1.249
   17CHTO   H18 7166   5.477   6.270   1.175
   17CHTO   C16 7167   5.655   6.389   1.203
   17CHTO   O11 7168   5.763   6.408   1.295
   17CHTO    H5 7169   5.821   6.475   1.262
   17CHTO    O3 7170   5.339   6.306   1.534
   17CHTO    C6 7171   5.242   6.411   1.499
   17CHTO   H19 7172   5.248   6.441   1.395
   17CHTO    C8 7173   5.097   6.362   1.527
   17CHTO   H21 7174   5.091   6.329   1.631
   17CHTO    O7 7175   5.071   6.250   1.440
   17CHTO    H2 7176   5.073   6.276   1.350
   17CHTO   C12 7177   4.993   6.479   1.505
   17CHTO   H25 7178   4.995   6.504   1.397
   17CHTO    N3 7179   4.853   6.435   1.537
   17CHTO   H12 7180   4.847   6.406   1.641
   17CHTO   H13 7181   4.784   6.516   1.516
   17CHTO   C15 7182   5.039   6.606   1.586
   17CHTO   H28 7183   5.030   6.590   1.694
   17CHTO   O10 7184   4.960   6.733   1.546
   17CHTO    H4 7185   4.982   6.804   1.604
   17CHTO    O5 7186   5.175   6.642   1.553
   17CHTO   C10 7187   5.270   6.538   1.584
   17CHTO   H23 7188   5.262   6.514   1.690
   17CHTO   C17 7189   5.412   6.594   1.563
   17CHTO   O12 7190   5.435   6.632   1.427
   17CHTO    H6 7191   5.522   6.666   1.418
   18CHTO  H203 7192   6.499   6.914   2.009
   18CHTO   O82 7193   6.431   6.851   2.026
   18CHTO  C123 7194   6.451   6.732   1.948
   18CHTO  H227 7195   6.373   6.659   1.975
   18CHTO   O77 7196   6.432   6.776   1.810
   18CHTO  C118 7197   6.442   6.673   1.711
   18CHTO  H222 7198   6.366   6.596   1.730
   18CHTO  C125 7199   6.414   6.739   1.571
   18CHTO   O84 7200   6.279   6.784   1.559
   18CHTO  H205 7201   6.221   6.710   1.558
   18CHTO  C114 7202   6.582   6.609   1.715
   18CHTO  H218 7203   6.656   6.687   1.691
   18CHTO  C116 7204   6.616   6.556   1.857
   18CHTO  H220 7205   6.549   6.469   1.880
   18CHTO   O79 7206   6.751   6.505   1.857
   18CHTO  H201 7207   6.757   6.428   1.803
   18CHTO  C120 7208   6.595   6.669   1.965
   18CHTO  H224 7209   6.672   6.747   1.945
   18CHTO   N21 7210   6.619   6.619   2.103
   18CHTO  H211 7211   6.654   6.700   2.166
   18CHTO  H212 7212   6.529   6.576   2.144
   18CHTO   O75 7213   6.582   6.508   1.613
   18CHTO  C112 7214   6.724   6.502   1.527
   18CHTO  H216 7215   6.809   6.511   1.598
   18CHTO   O73 7216   6.722   6.611   1.433
   18CHTO  C113 7217   6.843   6.624   1.356
   18CHTO  H217 7218   6.929   6.636   1.424
   18CHTO  C124 7219   6.834   6.750   1.269
   18CHTO   O83 7220   6.807   6.869   1.342
   18CHTO  H204 7221   6.720   6.867   1.377
   18CHTO  C109 7222   6.863   6.497   1.268
   18CHTO  H213 7223   6.778   6.493   1.198
   18CHTO  C110 7224   6.864   6.370   1.358
   18CHTO  H214 7225   6.955   6.372   1.420
   18CHTO   O78 7226   6.872   6.253   1.274
   18CHTO  H200 7227   6.955   6.250   1.230
   18CHTO  C111 7228   6.738   6.366   1.449
   18CHTO  H215 7229   6.649   6.354   1.386
   18CHTO   N19 7230   6.737   6.252   1.545
   18CHTO  H207 7231   6.742   6.158   1.491
   18CHTO  H208 7232   6.646   6.254   1.604
   18CHTO   O74 7233   6.987   6.511   1.191
   18CHTO  C115 7234   6.980   6.450   1.047
   18CHTO  H219 7235   6.934   6.350   1.047
   18CHTO   O76 7236   6.885   6.537   0.949
   18CHTO  C122 7237   6.941   6.663   0.908
   18CHTO  H226 7238   6.936   6.730   0.994
   18CHTO  C126 7239   6.848   6.727   0.798
   18CHTO   O85 7240   6.834   6.646   0.681
   18CHTO  H206 7241   6.916   6.641   0.636
   18CHTO  C121 7242   7.090   6.652   0.855
   18CHTO  H225 7243   7.095   6.694   0.753
   18CHTO   O81 7244   7.176   6.735   0.935
   18CHTO  H202 7245   7.179   6.703   1.023
   18CHTO  C119 7246   7.139   6.504   0.851
   18CHTO  H223 7247   7.067   6.452   0.787
   18CHTO  C117 7248   7.129   6.439   0.994
   18CHTO  H221 7249   7.191   6.488   1.070
   18CHTO   N20 7250   7.176   6.297   0.993
   18CHTO  H209 7251   7.171   6.256   1.092
   18CHTO  H210 7252   7.277   6.291   0.956
   18CHTO   O80 7253   7.277   6.485   0.767
   18CHTO  C103 7254   7.274   6.413   0.623
   18CHTO  H190 7255   7.374   6.410   0.580
   18CHTO  C101 7256   7.214   6.267   0.621
   18CHTO  H188 7257   7.121   6.266   0.677
   18CHTO   O68 7258   7.313   6.172   0.692
   18CHTO  H168 7259   7.323   6.198   0.782
   18CHTO   C99 7260   7.182   6.218   0.471
   18CHTO  H186 7261   7.277   6.213   0.413
   18CHTO   N17 7262   7.118   6.083   0.463
   18CHTO  H174 7263   7.182   6.009   0.509
   18CHTO  H175 7264   7.021   6.085   0.511
   18CHTO   C97 7265   7.096   6.327   0.402
   18CHTO  H184 7266   7.001   6.336   0.458
   18CHTO   O64 7267   7.169   6.451   0.400
   18CHTO  C104 7268   7.188   6.509   0.530
   18CHTO  H191 7269   7.091   6.528   0.578
   18CHTO  C108 7270   7.256   6.645   0.514
   18CHTO   O71 7271   7.172   6.736   0.441
   18CHTO  H171 7272   7.098   6.760   0.493
   18CHTO   O62 7273   7.071   6.304   0.262
   18CHTO   C91 7274   6.935   6.318   0.215
   18CHTO  H178 7275   6.870   6.266   0.286
   18CHTO   C92 7276   6.928   6.239   0.080
   18CHTO  H179 7277   7.016   6.265   0.020
   18CHTO   O66 7278   6.942   6.099   0.111
   18CHTO  H166 7279   6.945   6.048   0.032
   18CHTO   C93 7280   6.796   6.267   4.037
   18CHTO  H180 7281   6.711   6.223   0.052
   18CHTO   N16 7282   6.794   6.202   3.903
   18CHTO  H172 7283   6.800   6.095   3.914
   18CHTO  H173 7284   6.877   6.238   3.844
   18CHTO   C94 7285   6.775   6.421   4.027
   18CHTO  H181 7286   6.861   6.471   3.982
   18CHTO   O61 7287   6.761   6.472   0.120
   18CHTO   C95 7288   6.882   6.467   0.197
   18CHTO  H182 7289   6.959   6.526   0.146
   18CHTO  C106 7290   6.850   6.539   0.333
   18CHTO   O69 7291   6.823   6.678   0.312
   18CHTO  H169 7292   6.804   6.719   0.395
   18CHTO   O63 7293   6.639   6.462   3.949
   18CHTO   C96 7294   6.651   6.599   3.863
   18CHTO  H183 7295   6.555   6.613   3.812
   18CHTO   C98 7296   6.761   6.599   3.754
   18CHTO  H185 7297   6.861   6.586   3.799
   18CHTO   O67 7298   6.741   6.485   3.670
   18CHTO  H167 7299   6.757   6.406   3.718
   18CHTO  C102 7300   6.756   6.734   3.668
   18CHTO  H189 7301   6.665   6.726   3.606
   18CHTO   N18 7302   6.867   6.752   3.571
   18CHTO  H176 7303   6.962   6.752   3.623
   18CHTO  H177 7304   6.866   6.672   3.498
   18CHTO  C105 7305   6.739   6.858   3.762
   18CHTO  H192 7306   6.816   6.932   3.741
   18CHTO   O65 7307   6.749   6.831   3.903
   18CHTO  C100 7308   6.673   6.722   3.959
   18CHTO  H187 7309   6.731   6.687   0.005
   18CHTO  C107 7310   6.538   6.774   4.014
   18CHTO   O70 7311   6.557   6.854   0.090
   18CHTO  H170 7312   6.474   6.882   0.123
   18CHTO   O57 7313   6.596   6.919   3.721
   18CHTO   C85 7314   6.591   7.055   3.673
   18CHTO  H157 7315   6.685   7.071   3.615
   18CHTO   C83 7316   6.598   7.154   3.793
   18CHTO  H155 7317   6.692   7.136   3.847
   18CHTO   O56 7318   6.491   7.124   3.886
   18CHTO  H135 7319   6.499   7.177   3.963
   18CHTO   C81 7320   6.598   7.300   3.739
   18CHTO  H153 7321   6.682   7.310   3.671
   18CHTO   N14 7322   6.622   7.402   3.844
   18CHTO  H141 7323   6.717   7.450   3.829
   18CHTO  H142 7324   6.621   7.359   3.942
   18CHTO   C79 7325   6.466   7.326   3.658
   18CHTO  H151 7326   6.475   7.425   3.612
   18CHTO   O52 7327   6.454   7.231   3.547
   18CHTO   C86 7328   6.464   7.090   3.587
   18CHTO  H158 7329   6.370   7.071   3.645
   18CHTO   C90 7330   6.456   6.999   3.462
   18CHTO   O60 7331   6.329   7.012   3.396
   18CHTO  H138 7332   6.321   7.098   3.359
   18CHTO   O50 7333   6.345   7.324   3.737
   18CHTO   C73 7334   6.217   7.377   3.698
   18CHTO  H145 7335   6.199   7.358   3.591
   18CHTO   C74 7336   6.212   7.532   3.722
   18CHTO  H146 7337   6.296   7.576   3.666
   18CHTO   O54 7338   6.092   7.582   3.662
   18CHTO  H133 7339   6.089   7.676   3.670
   18CHTO   C75 7340   6.223   7.561   3.877
   18CHTO  H147 7341   6.320   7.523   3.913
   18CHTO   N13 7342   6.223   7.706   3.912
   18CHTO  H139 7343   6.218   7.767   3.823
   18CHTO  H140 7344   6.140   7.731   3.976
   18CHTO   C76 7345   6.110   7.478   3.955
   18CHTO  H148 7346   6.013   7.518   3.924
   18CHTO   O49 7347   6.118   7.336   3.921
   18CHTO   C77 7348   6.104   7.310   3.780
   18CHTO  H149 7349   6.007   7.347   3.746
   18CHTO   C88 7350   6.100   7.158   3.757
   18CHTO   O58 7351   5.979   7.099   3.817
   18CHTO  H136 7352   5.983   7.105   3.910
   18CHTO   O51 7353   6.132   7.486   0.071
   18CHTO   C78 7354   6.020   7.414   0.157
   18CHTO  H150 7355   5.975   7.329   0.100
   18CHTO   C80 7356   5.908   7.513   0.195
   18CHTO  H152 7357   5.955   7.604   0.238
   18CHTO   O55 7358   5.840   7.553   0.074
   18CHTO  H134 7359   5.797   7.479   0.035
   18CHTO   C84 7360   5.807   7.451   0.300
   18CHTO  H156 7361   5.756   7.367   0.252
   18CHTO   N15 7362   5.701   7.547   0.346
   18CHTO  H143 7363   5.713   7.642   0.299
   18CHTO  H144 7364   5.604   7.509   0.324
   18CHTO   C87 7365   5.889   7.396   0.419
   18CHTO  H159 7366   5.941   7.480   0.468
   18CHTO   O53 7367   5.989   7.295   0.368
   18CHTO   C82 7368   6.087   7.354   0.281
   18CHTO  H154 7369   6.144   7.431   0.335
   18CHTO   C89 7370   6.189   7.245   0.240
   18CHTO   O59 7371   6.261   7.194   0.353
   18CHTO  H137 7372   6.320   7.261   0.385
   18CHTO   O45 7373   5.796   7.317   0.530
   18CHTO   C67 7374   5.847   7.334   0.664
   18CHTO  H124 7375   5.940   7.389   0.661
   18CHTO   C65 7376   5.745   7.413   0.752
   18CHTO  H122 7377   5.645   7.379   0.722
   18CHTO   O44 7378   5.760   7.551   0.714
   18CHTO  H102 7379   5.694   7.603   0.754
   18CHTO   C63 7380   5.755   7.377   0.907
   18CHTO  H120 7381   5.698   7.286   0.924
   18CHTO   N11 7382   5.690   7.473   1.002
   18CHTO  H108 7383   5.602   7.429   1.045
   18CHTO  H109 7384   5.757   7.502   1.079
   18CHTO   C61 7385   5.904   7.339   0.941
   18CHTO  H118 7386   5.906   7.308   1.047
   18CHTO   O40 7387   5.949   7.222   0.863
   18CHTO   C68 7388   5.882   7.197   0.734
   18CHTO  H125 7389   5.790   7.139   0.753
   18CHTO   C72 7390   5.974   7.109   0.646
   18CHTO   O48 7391   5.994   6.978   0.700
   18CHTO  H105 7392   6.045   6.984   0.779
   18CHTO   O38 7393   5.995   7.449   0.921
   18CHTO   C55 7394   6.128   7.433   0.974
   18CHTO  H112 7395   6.150   7.326   0.991
   18CHTO   C56 7396   6.148   7.518   1.106
   18CHTO  H113 7397   6.130   7.624   1.080
   18CHTO   O42 7398   6.046   7.482   1.201
   18CHTO  H100 7399   6.052   7.537   1.277
   18CHTO   C57 7400   6.293   7.497   1.163
   18CHTO  H114 7401   6.298   7.394   1.197
   18CHTO   N10 7402   6.324   7.583   1.281
   18CHTO  H106 7403   6.430   7.605   1.287
   18CHTO  H107 7404   6.293   7.533   1.372
   18CHTO   C58 7405   6.401   7.517   1.052
   18CHTO  H115 7406   6.417   7.626   1.035
   18CHTO   O37 7407   6.366   7.456   0.927
   18CHTO   C59 7408   6.236   7.482   0.873
   18CHTO  H116 7409   6.225   7.589   0.854
   18CHTO   C70 7410   6.225   7.411   0.737
   18CHTO   O46 7411   6.254   7.271   0.744
   18CHTO  H103 7412   6.246   7.233   0.659
   18CHTO   O39 7413   6.550   7.444   1.103
   18CHTO   C60 7414   6.552   7.301   1.085
   18CHTO  H117 7415   6.451   7.262   1.091
   18CHTO   C62 7416   6.611   7.263   0.946
   18CHTO  H119 7417   6.552   7.319   0.872
   18CHTO   O43 7418   6.748   7.305   0.934
   18CHTO  H101 7419   6.802   7.260   0.997
   18CHTO   C66 7420   6.587   7.106   0.921
   18CHTO  H123 7421   6.481   7.086   0.930
   18CHTO   N12 7422   6.625   7.064   0.783
   18CHTO  H110 7423   6.661   7.148   0.725
   18CHTO  H111 7424   6.541   7.016   0.734
   18CHTO   C69 7425   6.659   7.023   1.030
   18CHTO  H126 7426   6.769   7.028   1.016
   18CHTO   O41 7427   6.622   7.076   1.177
   18CHTO   C64 7428   6.635   7.229   1.195
   18CHTO  H121 7429   6.742   7.259   1.187
   18CHTO   C71 7430   6.586   7.267   1.337
   18CHTO   O47 7431   6.670   7.207   1.437
   18CHTO  H104 7432   6.639   7.231   1.522
   18CHTO   O34 7433   6.616   6.872   1.022
   18CHTO   C49 7434   6.543   6.737   1.025
   18CHTO   H91 7435   6.618   6.661   1.003
   18CHTO   C47 7436   6.432   6.733   0.918
   18CHTO   H89 7437   6.397   6.627   0.919
   18CHTO   O33 7438   6.487   6.760   0.788
   18CHTO   H70 7439   6.422   6.744   0.722
   18CHTO   C45 7440   6.311   6.835   0.952
   18CHTO   H87 7441   6.328   6.929   0.898
   18CHTO    N8 7442   6.184   6.776   0.902
   18CHTO   H75 7443   6.102   6.844   0.920
   18CHTO   H76 7444   6.191   6.755   0.797
   18CHTO   C43 7445   6.312   6.875   1.108
   18CHTO   H85 7446   6.388   6.953   1.117
   18CHTO   O29 7447   6.345   6.760   1.188
   18CHTO   C50 7448   6.477   6.707   1.163
   18CHTO   H92 7449   6.543   6.746   1.241
   18CHTO   C54 7450   6.475   6.554   1.190
   18CHTO   O36 7451   6.452   6.524   1.327
   18CHTO   H72 7452   6.364   6.547   1.351
   18CHTO   O27 7453   6.191   6.939   1.152
   18CHTO   C37 7454   6.136   6.984   1.277
   18CHTO   H79 7455   6.129   6.901   1.348
   18CHTO   C38 7456   6.226   7.093   1.343
   18CHTO   H80 7457   6.249   7.170   1.267
   18CHTO   O31 7458   6.349   7.030   1.382
   18CHTO   H68 7459   6.399   7.006   1.307
   18CHTO   C39 7460   6.156   7.162   1.467
   18CHTO   H81 7461   6.151   7.088   1.547
   18CHTO    N7 7462   6.233   7.279   1.519
   18CHTO   H73 7463   6.182   7.322   1.604
   18CHTO   H74 7464   6.332   7.248   1.549
   18CHTO   C40 7465   6.007   7.203   1.432
   18CHTO   H82 7466   6.008   7.286   1.361
   18CHTO   O26 7467   5.939   7.088   1.378
   18CHTO   C41 7468   5.994   7.041   1.252
   18CHTO   H83 7469   6.000   7.125   1.181
   18CHTO   C52 7470   5.898   6.936   1.193
   18CHTO   O35 7471   5.763   6.994   1.162
   18CHTO   H71 7472   5.720   7.019   1.242
   18CHTO   O28 7473   5.933   7.248   1.548
   18CHTO   C42 7474   5.787   7.257   1.554
   18CHTO   H84 7475   5.769   7.326   1.637
   18CHTO   C44 7476   5.715   7.124   1.592
   18CHTO   H86 7477   5.749   7.045   1.525
   18CHTO   O32 7478   5.759   7.090   1.725
   18CHTO   H69 7479   5.850   7.066   1.725
   18CHTO   C48 7480   5.557   7.130   1.583
   18CHTO   H90 7481   5.520   7.195   1.662
   18CHTO    N9 7482   5.496   6.995   1.609
   18CHTO   H77 7483   5.521   6.961   1.708
   18CHTO   H78 7484   5.530   6.924   1.534
   18CHTO   C51 7485   5.515   7.192   1.444
   18CHTO   H93 7486   5.554   7.127   1.366
   18CHTO   O30 7487   5.568   7.324   1.436
   18CHTO   C46 7488   5.723   7.323   1.427
   18CHTO   H88 7489   5.751   7.266   1.338
   18CHTO   C53 7490   5.772   7.470   1.410
   18CHTO   O72 7491   5.734   7.552   1.521
   18CHTO  H199 7492   5.764   7.640   1.506
   18CHTO   O22 7493   5.371   7.205   1.432
   18CHTO   C31 7494   5.296   7.202   1.304
   18CHTO   H59 7495   5.190   7.186   1.332
   18CHTO   C29 7496   5.302   7.335   1.224
   18CHTO   H57 7497   5.408   7.356   1.200
   18CHTO   O21 7498   5.257   7.441   1.311
   18CHTO   H37 7499   5.317   7.454   1.382
   18CHTO   C27 7500   5.218   7.330   1.091
   18CHTO   H55 7501   5.111   7.320   1.117
   18CHTO    N5 7502   5.234   7.451   1.007
   18CHTO   H43 7503   5.336   7.460   0.973
   18CHTO   H44 7504   5.167   7.447   0.922
   18CHTO   C25 7505   5.255   7.200   1.010
   18CHTO   H53 7506   5.359   7.209   0.974
   18CHTO   O17 7507   5.246   7.082   1.094
   18CHTO   C32 7508   5.333   7.084   1.208
   18CHTO   H60 7509   5.437   7.096   1.175
   18CHTO   C36 7510   5.319   6.946   1.279
   18CHTO   O25 7511   5.362   6.839   1.194
   18CHTO   H40 7512   5.303   6.829   1.122
   18CHTO   O15 7513   5.157   7.177   0.885
   18CHTO   C19 7514   5.196   7.137   0.750
   18CHTO   H47 7515   5.101   7.111   0.702
   18CHTO   C20 7516   5.263   7.252   0.669
   18CHTO   H48 7517   5.349   7.296   0.723
   18CHTO   O19 7518   5.163   7.354   0.654
   18CHTO   H35 7519   5.200   7.430   0.612
   18CHTO   C21 7520   5.316   7.202   0.527
   18CHTO   H49 7521   5.230   7.173   0.467
   18CHTO    N4 7522   5.389   7.308   0.452
   18CHTO   H41 7523   5.340   7.328   0.358
   18CHTO   H42 7524   5.395   7.400   0.509
   18CHTO   C22 7525   5.402   7.075   0.550
   18CHTO   H50 7526   5.487   7.102   0.613
   18CHTO   O14 7527   5.322   6.974   0.614
   18CHTO   C23 7528   5.283   7.007   0.748
   18CHTO   H51 7529   5.376   7.019   0.807
   18CHTO   C34 7530   5.209   6.886   0.808
   18CHTO   O23 7531   5.092   6.851   0.733
   18CHTO   H38 7532   5.050   6.777   0.773
   18CHTO   O16 7533   5.446   7.011   0.428
   18CHTO   C24 7534   5.609   7.019   0.403
   18CHTO   H52 7535   5.654   7.101   0.459
   18CHTO   C26 7536   5.634   7.040   0.253
   18CHTO   H54 7537   5.582   6.958   0.197
   18CHTO   O20 7538   5.576   7.165   0.213
   18CHTO   H36 7539   5.483   7.161   0.217
   18CHTO   C30 7540   5.786   7.032   0.219
   18CHTO   H58 7541   5.838   7.119   0.263
   18CHTO    N6 7542   5.810   7.041   0.072
   18CHTO   H45 7543   5.917   7.039   0.051
   18CHTO   H46 7544   5.764   6.958   0.021
   18CHTO   C33 7545   5.851   6.905   0.281
   18CHTO   H61 7546   5.811   6.816   0.231
   18CHTO   O18 7547   5.817   6.897   0.420
   18CHTO   C28 7548   5.677   6.889   0.451
   18CHTO   H56 7549   5.631   6.804   0.400
   18CHTO   C35 7550   5.664   6.869   0.604
   18CHTO   O24 7551   5.720   6.744   0.647
   18CHTO   H39 7552   5.711   6.736   0.740
   18CHTO    O9 7553   5.994   6.901   0.263
   18CHTO   C13 7554   6.065   6.785   0.164
   18CHTO   H26 7555   6.063   6.825   0.061
   18CHTO   C11 7556   5.994   6.643   0.173
   18CHTO   H24 7557   5.894   6.653   0.128
   18CHTO    O8 7558   5.975   6.604   0.311
   18CHTO    H3 7559   6.058   6.593   0.353
   18CHTO    C9 7560   6.076   6.543   0.088
   18CHTO   H22 7561   6.086   6.590   4.029
   18CHTO    N2 7562   6.007   6.415   0.061
   18CHTO   H10 7563   6.066   6.355   4.034
   18CHTO   H11 7564   5.909   6.433   0.019
   18CHTO    C7 7565   6.219   6.527   0.150
   18CHTO   H20 7566   6.274   6.464   0.076
   18CHTO    O4 7567   6.287   6.654   0.161
   18CHTO   C14 7568   6.220   6.775   0.203
   18CHTO   H27 7569   6.271   6.857   0.149
   18CHTO   C18 7570   6.244   6.798   0.354
   18CHTO   O13 7571   6.383   6.820   0.382
   18CHTO    H7 7572   6.410   6.903   0.348
   18CHTO    O2 7573   6.217   6.451   0.299
   18CHTO    C1 7574   6.344   6.418   0.360
   18CHTO   H14 7575   6.407   6.510   0.364
   18CHTO    C2 7576   6.426   6.303   0.287
   18CHTO   H15 7577   6.355   6.220   0.272
   18CHTO    O6 7578   6.472   6.351   0.159
   18CHTO    H1 7579   6.399   6.365   0.102
   18CHTO    C3 7580   6.552   6.254   0.374
   18CHTO   H16 7581   6.630   6.332   0.366
   18CHTO    N1 7582   6.612   6.128   0.319
   18CHTO    H8 7583   6.699   6.099   0.378
   18CHTO    H9 7584   6.539   6.048   0.322
   18CHTO    C4 7585   6.520   6.242   0.528
   18CHTO   H17 7586   6.468   6.147   0.547
   18CHTO    O1 7587   6.442   6.352   0.576
   18CHTO    C5 7588   6.318   6.374   0.507
   18CHTO   H18 7589   6.262   6.280   0.504
   18CHTO   C16 7590   6.235   6.478   0.587
   18CHTO   O11 7591   6.309   6.599   0.610
   18CHTO    H5 7592   6.256   6.659   0.658
   18CHTO    O3 7593   6.643   6.249   0.604
   18CHTO    C6 7594   6.652   6.167   0.725
   18CHTO   H19 7595   6.557   6.121   0.752
   18CHTO    C8 7596   6.757   6.053   0.705
   18CHTO   H21 7597   6.852   6.099   0.674
   18CHTO    O7 7598   6.709   5.968   0.600
   18CHTO    H2 7599   6.711   6.012   0.518
   18CHTO   C12 7600   6.780   5.973   0.839
   18CHTO   H25 7601   6.685   5.919   0.861
   18CHTO    N3 7602   6.887   5.868   0.824
   18CHTO   H12 7603   6.859   5.798   0.747
   18CHTO   H13 7604   6.901   5.816   0.918
   18CHTO   C15 7605   6.809   6.073   0.957
   18CHTO   H28 7606   6.907   6.120   0.947
   18CHTO   O10 7607   6.797   6.007   1.096
   18CHTO    H4 7608   6.864   5.941   1.105
   18CHTO    O5 7609   6.706   6.173   0.965
   18CHTO   C10 7610   6.695   6.255   0.847
   18CHTO   H23 7611   6.792   6.302   0.828
   18CHTO   C17 7612   6.594   6.365   0.881
   18CHTO   O12 7613   6.598   6.472   0.786
   18CHTO    H6 7614   6.535   6.537   0.810
   19CHTO  H203 7615   6.817   7.960   1.696
   19CHTO   O82 7616   6.764   7.958   1.774
   19CHTO  C123 7617   6.631   7.914   1.741
   19CHTO  H227 7618   6.595   7.970   1.653
   19CHTO   O77 7619   6.648   7.773   1.707
   19CHTO  C118 7620   6.527   7.706   1.667
   19CHTO  H222 7621   6.482   7.760   1.583
   19CHTO  C125 7622   6.563   7.560   1.621
   19CHTO   O84 7623   6.638   7.563   1.500
   19CHTO  H205 7624   6.724   7.598   1.516
   19CHTO  C114 7625   6.429   7.705   1.786
   19CHTO  H218 7626   6.476   7.653   1.870
   19CHTO  C116 7627   6.397   7.850   1.832
   19CHTO  H220 7628   6.340   7.902   1.751
   19CHTO   O79 7629   6.309   7.844   1.945
   19CHTO  H201 7630   6.352   7.803   2.018
   19CHTO  C120 7631   6.531   7.929   1.863
   19CHTO  H224 7632   6.574   7.882   1.953
   19CHTO   N21 7633   6.504   8.072   1.896
   19CHTO  H211 7634   6.588   8.134   1.868
   19CHTO  H212 7635   6.482   8.082   2.001
   19CHTO   O75 7636   6.313   7.633   1.740
   19CHTO  C112 7637   6.260   7.522   1.849
   19CHTO  H216 7638   6.275   7.562   1.950
   19CHTO   O73 7639   6.334   7.402   1.826
   19CHTO  C113 7640   6.303   7.296   1.918
   19CHTO  H217 7641   6.319   7.332   2.021
   19CHTO  C124 7642   6.400   7.179   1.894
   19CHTO   O83 7643   6.536   7.213   1.920
   19CHTO  H204 7644   6.548   7.227   2.012
   19CHTO  C109 7645   6.155   7.252   1.902
   19CHTO  H213 7646   6.145   7.208   1.802
   19CHTO  C110 7647   6.060   7.375   1.917
   19CHTO  H214 7648   6.059   7.406   2.022
   19CHTO   O78 7649   5.926   7.334   1.883
   19CHTO  H200 7650   5.893   7.273   1.947
   19CHTO  C111 7651   6.106   7.494   1.827
   19CHTO  H215 7652   6.091   7.467   1.722
   19CHTO   N19 7653   6.029   7.620   1.850
   19CHTO  H207 7654   5.979   7.650   1.759
   19CHTO  H208 7655   5.956   7.608   1.929
   19CHTO   O74 7656   6.124   7.150   2.002
   19CHTO  C115 7657   6.039   7.026   1.945
   19CHTO  H219 7658   5.968   7.057   1.868
   19CHTO   O76 7659   6.133   6.919   1.875
   19CHTO  C122 7660   6.071   6.796   1.836
   19CHTO  H226 7661   6.150   6.728   1.803
   19CHTO  C126 7662   5.980   6.820   1.709
   19CHTO   O85 7663   5.922   6.699   1.659
   19CHTO  H206 7664   5.868   6.719   1.585
   19CHTO  C121 7665   5.994   6.729   1.956
   19CHTO  H225 7666   5.939   6.642   1.915
   19CHTO   O81 7667   6.089   6.680   2.052
   19CHTO  H202 7668   6.137   6.750   2.090
   19CHTO  C119 7669   5.891   6.826   2.022
   19CHTO  H223 7670   5.817   6.848   1.945
   19CHTO  C117 7671   5.957   6.963   2.065
   19CHTO  H221 7672   6.029   6.956   2.147
   19CHTO   N20 7673   5.852   7.059   2.112
   19CHTO  H209 7674   5.797   7.016   2.194
   19CHTO  H210 7675   5.898   7.151   2.144
   19CHTO   O80 7676   5.795   6.756   2.140
   19CHTO  C103 7677   5.760   6.602   2.134
   19CHTO  H190 7678   5.812   6.553   2.053
   19CHTO  C101 7679   5.790   6.522   2.266
   19CHTO  H188 7680   5.739   6.571   2.350
   19CHTO   O68 7681   5.944   6.525   2.293
   19CHTO  H168 7682   5.973   6.614   2.308
   19CHTO   C99 7683   5.733   6.373   2.253
   19CHTO  H186 7684   5.784   6.323   2.168
   19CHTO   N17 7685   5.760   6.286   2.374
   19CHTO  H174 7686   5.803   6.344   2.454
   19CHTO  H175 7687   5.671   6.234   2.406
   19CHTO   C97 7688   5.582   6.378   2.216
   19CHTO  H184 7689   5.526   6.421   2.301
   19CHTO   O64 7690   5.564   6.456   2.095
   19CHTO  C104 7691   5.606   6.593   2.103
   19CHTO  H191 7692   5.550   6.646   2.181
   19CHTO  C108 7693   5.569   6.663   1.971
   19CHTO   O71 7694   5.635   6.604   1.858
   19CHTO  H171 7695   5.609   6.649   1.780
   19CHTO   O62 7696   5.531   6.247   2.184
   19CHTO   C91 7697   5.389   6.232   2.160
   19CHTO  H178 7698   5.344   6.331   2.151
   19CHTO   C92 7699   5.322   6.162   2.283
   19CHTO  H179 7700   5.386   6.078   2.314
   19CHTO   O66 7701   5.325   6.256   2.392
   19CHTO  H166 7702   5.414   6.271   2.420
   19CHTO   C93 7703   5.174   6.113   2.256
   19CHTO  H180 7704   5.111   6.203   2.248
   19CHTO   N16 7705   5.117   6.033   2.367
   19CHTO  H172 7706   5.175   5.944   2.383
   19CHTO  H173 7707   5.014   6.008   2.345
   19CHTO   C94 7708   5.169   6.036   2.120
   19CHTO  H181 7709   5.233   5.947   2.121
   19CHTO   O61 7710   5.217   6.123   2.016
   19CHTO   C95 7711   5.357   6.153   2.028
   19CHTO  H182 7712   5.413   6.060   2.028
   19CHTO  C106 7713   5.404   6.234   1.903
   19CHTO   O69 7714   5.404   6.150   1.787
   19CHTO  H169 7715   5.434   6.199   1.713
   19CHTO   O63 7716   5.018   5.993   2.078
   19CHTO   C96 7717   5.016   5.858   1.993
   19CHTO  H183 7718   5.064   5.781   2.054
   19CHTO   C98 7719   5.093   5.865   1.857
   19CHTO  H185 7720   5.192   5.912   1.870
   19CHTO   O67 7721   5.121   5.731   1.812
   19CHTO  H167 7722   5.041   5.684   1.798
   19CHTO  C102 7723   5.009   5.940   1.743
   19CHTO  H189 7724   5.065   5.924   1.650
   19CHTO   N18 7725   5.000   6.087   1.758
   19CHTO  H176 7726   5.054   6.121   1.845
   19CHTO  H177 7727   5.038   6.136   1.669
   19CHTO  C105 7728   4.869   5.872   1.731
   19CHTO  H192 7729   4.789   5.947   1.732
   19CHTO   O65 7730   4.838   5.774   1.832
   19CHTO  C100 7731   4.864   5.817   1.967
   19CHTO  H187 7732   4.801   5.905   1.987
   19CHTO  C107 7733   4.818   5.706   2.066
   19CHTO   O70 7734   4.888   5.583   2.047
   19CHTO  H170 7735   4.978   5.593   2.072
   19CHTO   O57 7736   4.877   5.807   1.588
   19CHTO   C85 7737   4.761   5.767   1.513
   19CHTO  H157 7738   4.676   5.762   1.585
   19CHTO   C83 7739   4.784   5.620   1.464
   19CHTO  H155 7740   4.781   5.555   1.552
   19CHTO   O56 7741   4.916   5.606   1.409
   19CHTO  H135 7742   4.925   5.658   1.331
   19CHTO   C81 7743   4.670   5.577   1.367
   19CHTO  H153 7744   4.575   5.589   1.419
   19CHTO   N14 7745   4.673   5.433   1.331
   19CHTO  H141 7746   4.762   5.386   1.367
   19CHTO  H142 7747   4.668   5.420   1.225
   19CHTO   C79 7748   4.669   5.674   1.243
   19CHTO  H151 7749   4.587   5.643   1.178
   19CHTO   O52 7750   4.637   5.809   1.289
   19CHTO   C86 7751   4.728   5.863   1.390
   19CHTO  H158 7752   4.820   5.889   1.333
   19CHTO   C90 7753   4.669   5.998   1.437
   19CHTO   O60 7754   4.764   6.079   1.506
   19CHTO  H138 7755   4.830   6.109   1.447
   19CHTO   O50 7756   4.791   5.674   1.166
   19CHTO   C73 7757   4.877   5.653   1.053
   19CHTO  H145 7758   4.854   5.557   1.005
   19CHTO   C74 7759   5.026   5.652   1.098
   19CHTO  H146 7760   5.036   5.572   1.172
   19CHTO   O54 7761   5.108   5.612   0.986
   19CHTO  H133 7762   5.103   5.676   0.917
   19CHTO   C75 7763   5.064   5.793   1.158
   19CHTO  H147 7764   5.006   5.808   1.250
   19CHTO   N13 7765   5.206   5.804   1.201
   19CHTO  H139 7766   5.224   5.902   1.242
   19CHTO  H140 7767   5.227   5.730   1.277
   19CHTO   C76 7768   5.024   5.911   1.058
   19CHTO  H148 7769   5.097   5.915   0.976
   19CHTO   O49 7770   4.890   5.896   1.003
   19CHTO   C77 7771   4.860   5.767   0.947
   19CHTO  H149 7772   4.929   5.748   0.865
   19CHTO   C88 7773   4.721   5.769   0.882
   19CHTO   O58 7774   4.618   5.820   0.970
   19CHTO  H136 7775   4.632   5.912   0.986
   19CHTO   O51 7776   5.016   6.049   1.141
   19CHTO   C78 7777   5.023   6.179   1.054
   19CHTO  H150 7778   5.024   6.155   0.945
   19CHTO   C80 7779   5.152   6.256   1.089
   19CHTO  H152 7780   5.157   6.267   1.200
   19CHTO   O55 7781   5.265   6.175   1.050
   19CHTO  H134 7782   5.267   6.165   0.957
   19CHTO   C84 7783   5.157   6.400   1.024
   19CHTO  H156 7784   5.165   6.388   0.915
   19CHTO   N15 7785   5.275   6.481   1.068
   19CHTO  H143 7786   5.366   6.432   1.039
   19CHTO  H144 7787   5.274   6.493   1.174
   19CHTO   C87 7788   5.024   6.473   1.056
   19CHTO  H159 7789   5.017   6.488   1.164
   19CHTO   O53 7790   4.910   6.388   1.007
   19CHTO   C82 7791   4.899   6.266   1.081
   19CHTO  H154 7792   4.888   6.287   1.188
   19CHTO   C89 7793   4.767   6.200   1.034
   19CHTO   O59 7794   4.725   6.096   1.123
   19CHTO  H137 7795   4.646   6.057   1.091
   19CHTO   O45 7796   5.009   6.618   0.981
   19CHTO   C67 7797   4.911   6.698   1.049
   19CHTO  H124 7798   4.853   6.635   1.116
   19CHTO   C65 7799   4.980   6.811   1.135
   19CHTO  H122 7800   5.065   6.846   1.077
   19CHTO   O44 7801   5.028   6.746   1.254
   19CHTO  H102 7802   5.097   6.685   1.233
   19CHTO   C63 7803   4.887   6.938   1.154
   19CHTO  H120 7804   4.897   7.000   1.064
   19CHTO   N11 7805   4.928   7.035   1.261
   19CHTO  H108 7806   4.844   7.059   1.324
   19CHTO  H109 7807   4.968   7.125   1.219
   19CHTO   C61 7808   4.737   6.892   1.158
   19CHTO  H118 7809   4.676   6.982   1.167
   19CHTO   O40 7810   4.697   6.826   1.033
   19CHTO   C68 7811   4.805   6.765   0.953
   19CHTO  H125 7812   4.854   6.844   0.894
   19CHTO   C72 7813   4.742   6.665   0.852
   19CHTO   O48 7814   4.668   6.559   0.913
   19CHTO  H105 7815   4.633   6.503   0.846
   19CHTO   O38 7816   4.715   6.803   1.270
   19CHTO   C55 7817   4.578   6.779   1.308
   19CHTO  H112 7818   4.511   6.792   1.222
   19CHTO   C56 7819   4.538   6.872   1.430
   19CHTO  H113 7820   4.612   6.855   1.509
   19CHTO   O42 7821   4.549   7.010   1.393
   19CHTO  H100 7822   4.491   7.031   1.322
   19CHTO   C57 7823   4.392   6.837   1.481
   19CHTO  H114 7824   4.323   6.872   1.404
   19CHTO   N10 7825   4.356   6.907   1.607
   19CHTO  H106 7826   4.405   7.003   1.613
   19CHTO  H107 7827   4.249   6.922   1.611
   19CHTO   C58 7828   4.373   6.684   1.499
   19CHTO  H115 7829   4.427   6.651   1.591
   19CHTO   O37 7830   4.423   6.609   1.387
   19CHTO   C59 7831   4.561   6.631   1.353
   19CHTO  H116 7832   4.624   6.609   1.439
   19CHTO   C70 7833   4.598   6.534   1.240
   19CHTO   O46 7834   4.590   6.396   1.281
   19CHTO  H103 7835   4.658   6.378   1.343
   19CHTO   O39 7836   4.206   6.648   1.514
   19CHTO   C60 7837   4.140   6.628   1.387
   19CHTO  H117 7838   4.199   6.673   1.307
   19CHTO   C62 7839   4.126   6.476   1.357
   19CHTO  H119 7840   4.229   6.433   1.362
   19CHTO   O43 7841   4.047   6.412   1.459
   19CHTO  H101 7842   3.959   6.445   1.458
   19CHTO   C66 7843   4.070   6.457   1.207
   19CHTO  H123 7844   4.141   6.503   1.139
   19CHTO   N12 7845   4.062   6.315   1.166
   19CHTO  H110 7846   4.026   6.308   1.064
   19CHTO  H111 7847   4.160   6.269   1.175
   19CHTO   C69 7848   3.934   6.530   1.190
   19CHTO  H126 7849   3.854   6.476   1.246
   19CHTO   O41 7850   3.942   6.680   1.243
   19CHTO   C64 7851   4.000   6.695   1.383
   19CHTO  H121 7852   3.933   6.645   1.457
   19CHTO   C71 7853   4.008   6.845   1.419
   19CHTO   O47 7854   3.878   6.904   1.422
   19CHTO  H104 7855   3.885   6.995   1.445
   19CHTO   O34 7856   3.891   6.535   1.036
   19CHTO   C49 7857   3.940   6.618   0.910
   19CHTO   H91 7858   3.905   6.720   0.923
   19CHTO   C47 7859   3.876   6.556   0.784
   19CHTO   H89 7860   3.906   6.619   0.697
   19CHTO   O33 7861   3.733   6.561   0.798
   19CHTO   H70 7862   3.703   6.650   0.796
   19CHTO   C45 7863   3.932   6.406   0.765
   19CHTO   H87 7864   3.905   6.349   0.855
   19CHTO    N8 7865   3.872   6.338   0.647
   19CHTO   H75 7866   3.949   6.297   0.583
   19CHTO   H76 7867   3.810   6.405   0.590
   19CHTO   C43 7868   4.094   6.405   0.765
   19CHTO   H85 7869   4.122   6.300   0.776
   19CHTO   O29 7870   4.149   6.486   0.871
   19CHTO   C50 7871   4.094   6.617   0.896
   19CHTO   H92 7872   4.135   6.653   0.992
   19CHTO   C54 7873   4.145   6.724   0.795
   19CHTO   O36 7874   4.288   6.737   0.802
   19CHTO   H72 7875   4.316   6.801   0.740
   19CHTO   O27 7876   4.152   6.448   0.641
   19CHTO   C37 7877   4.267   6.433   0.556
   19CHTO   H79 7878   4.256   6.342   0.494
   19CHTO   C38 7879   4.276   6.554   0.458
   19CHTO   H80 7880   4.276   6.647   0.518
   19CHTO   O31 7881   4.158   6.554   0.376
   19CHTO   H68 7882   4.156   6.477   0.322
   19CHTO   C39 7883   4.409   6.548   0.373
   19CHTO   H81 7884   4.407   6.456   0.314
   19CHTO    N7 7885   4.425   6.663   0.277
   19CHTO   H73 7886   4.517   6.652   0.222
   19CHTO   H74 7887   4.341   6.665   0.209
   19CHTO   C40 7888   4.531   6.538   0.472
   19CHTO   H82 7889   4.536   6.629   0.533
   19CHTO   O26 7890   4.516   6.421   0.554
   19CHTO   C41 7891   4.398   6.420   0.640
   19CHTO   H83 7892   4.404   6.504   0.711
   19CHTO   C52 7893   4.404   6.288   0.720
   19CHTO   O35 7894   4.521   6.281   0.810
   19CHTO   H71 7895   4.599   6.276   0.759
   19CHTO   O28 7896   4.657   6.515   0.407
   19CHTO   C42 7897   4.779   6.582   0.453
   19CHTO   H84 7898   4.753   6.629   0.548
   19CHTO   C44 7899   4.829   6.697   0.359
   19CHTO   H86 7900   4.838   6.657   0.258
   19CHTO   O32 7901   4.726   6.798   0.357
   19CHTO   H69 7902   4.716   6.837   0.442
   19CHTO   C48 7903   4.969   6.756   0.402
   19CHTO   H90 7904   4.958   6.807   0.497
   19CHTO    N9 7905   5.020   6.860   0.305
   19CHTO   H77 7906   5.030   6.818   0.206
   19CHTO   H78 7907   4.952   6.944   0.303
   19CHTO   C51 7908   5.070   6.636   0.419
   19CHTO   H93 7909   5.075   6.583   0.324
   19CHTO   O30 7910   5.020   6.552   0.524
   19CHTO   C46 7911   4.893   6.479   0.484
   19CHTO   H88 7912   4.913   6.420   0.395
   19CHTO   C53 7913   4.854   6.386   0.601
   19CHTO   O72 7914   4.955   6.287   0.626
   19CHTO  H199 7915   4.958   6.226   0.554
   19CHTO   O22 7916   5.201   6.677   0.463
   19CHTO   C31 7917   5.316   6.593   0.423
   19CHTO   H59 7918   5.275   6.490   0.406
   19CHTO   C29 7919   5.384   6.636   0.292
   19CHTO   H57 7920   5.426   6.737   0.308
   19CHTO   O21 7921   5.285   6.648   0.189
   19CHTO   H37 7922   5.249   6.564   0.168
   19CHTO   C27 7923   5.501   6.538   0.251
   19CHTO   H55 7924   5.457   6.442   0.222
   19CHTO    N5 7925   5.581   6.588   0.136
   19CHTO   H43 7926   5.516   6.605   0.051
   19CHTO   H44 7927   5.631   6.680   0.162
   19CHTO   C25 7928   5.595   6.509   0.374
   19CHTO   H53 7929   5.660   6.595   0.394
   19CHTO   O17 7930   5.520   6.481   0.497
   19CHTO   C32 7931   5.423   6.579   0.534
   19CHTO   H60 7932   5.471   6.676   0.548
   19CHTO   C36 7933   5.359   6.537   0.669
   19CHTO   O25 7934   5.457   6.536   0.774
   19CHTO   H40 7935   5.483   6.623   0.794
   19CHTO   O15 7936   5.685   6.386   0.345
   19CHTO   C19 7937   5.675   6.244   0.373
   19CHTO   H47 7938   5.672   6.239   0.483
   19CHTO   C20 7939   5.548   6.172   0.317
   19CHTO   H48 7940   5.540   6.183   0.208
   19CHTO   O19 7941   5.433   6.236   0.376
   19CHTO   H35 7942   5.424   6.323   0.343
   19CHTO   C21 7943   5.548   6.018   0.352
   19CHTO   H49 7944   5.535   6.007   0.460
   19CHTO    N4 7945   5.435   5.944   0.288
   19CHTO   H41 7946   5.341   5.984   0.323
   19CHTO   H42 7947   5.440   5.954   0.181
   19CHTO   C22 7948   5.685   5.955   0.317
   19CHTO   H50 7949   5.696   5.952   0.209
   19CHTO   O14 7950   5.794   6.030   0.374
   19CHTO   C23 7951   5.803   6.166   0.331
   19CHTO   H51 7952   5.816   6.165   0.221
   19CHTO   C34 7953   5.929   6.229   0.392
   19CHTO   O23 7954   6.048   6.178   0.331
   19CHTO   H38 7955   6.060   6.088   0.355
   19CHTO   O16 7956   5.700   5.826   0.380
   19CHTO   C24 7957   5.741   5.690   0.292
   19CHTO   H52 7958   5.824   5.636   0.338
   19CHTO   C26 7959   5.780   5.718   0.145
   19CHTO   H54 7960   5.697   5.775   0.096
   19CHTO   O20 7961   5.899   5.800   0.145
   19CHTO   H36 7962   5.879   5.886   0.177
   19CHTO   C30 7963   5.799   5.585   0.065
   19CHTO   H58 7964   5.888   5.533   0.102
   19CHTO    N6 7965   5.824   5.612   3.962
   19CHTO   H45 7966   5.838   5.519   3.909
   19CHTO   H46 7967   5.913   5.673   3.950
   19CHTO   C33 7968   5.679   5.489   0.087
   19CHTO   H61 7969   5.588   5.532   0.041
   19CHTO   O18 7970   5.656   5.475   0.228
   19CHTO   C28 7971   5.619   5.596   0.294
   19CHTO   H56 7972   5.535   5.644   0.244
   19CHTO   C35 7973   5.578   5.562   0.439
   19CHTO   O24 7974   5.468   5.471   0.442
   19CHTO   H39 7975   5.390   5.513   0.412
   19CHTO    O9 7976   5.696   5.360   0.024
   19CHTO   C13 7977   5.553   5.279   4.039
   19CHTO   H26 7978   5.493   5.338   3.967
   19CHTO   C11 7979   5.473   5.253   0.134
   19CHTO   H24 7980   5.444   5.352   0.174
   19CHTO    O8 7981   5.557   5.191   0.233
   19CHTO    H3 7982   5.583   5.106   0.204
   19CHTO    C9 7983   5.344   5.176   0.099
   19CHTO   H22 7984   5.291   5.237   0.024
   19CHTO    N2 7985   5.248   5.164   0.212
   19CHTO   H10 7986   5.156   5.119   0.177
   19CHTO   H11 7987   5.228   5.262   0.253
   19CHTO    C7 7988   5.381   5.038   0.033
   19CHTO   H20 7989   5.283   5.000   4.040
   19CHTO    O4 7990   5.465   5.056   3.958
   19CHTO   C14 7991   5.581   5.141   3.964
   19CHTO   H27 7992   5.608   5.166   3.859
   19CHTO   C18 7993   5.703   5.065   4.024
   19CHTO   O13 7994   5.735   4.948   3.948
   19CHTO    H7 7995   5.808   4.905   3.987
   19CHTO    O2 7996   5.454   4.931   0.139
   19CHTO    C1 7997   5.414   4.792   0.136
   19CHTO   H14 7998   5.503   4.731   0.164
   19CHTO    C2 7999   5.359   4.737   4.038
   19CHTO   H15 8000   5.275   4.801   4.009
   19CHTO    O6 8001   5.464   4.747   3.941
   19CHTO    H1 8002   5.433   4.723   3.856
   19CHTO    C3 8003   5.306   4.586   0.012
   19CHTO   H16 8004   5.391   4.520   0.033
   19CHTO    N1 8005   5.241   4.535   3.926
   19CHTO    H8 8006   5.137   4.511   3.942
   19CHTO    H9 8007   5.250   4.608   3.847
   19CHTO    C4 8008   5.211   4.575   0.137
   19CHTO   H17 8009   5.119   4.631   0.117
   19CHTO    O1 8010   5.274   4.626   0.255
   19CHTO    C5 8011   5.309   4.766   0.249
   19CHTO   H18 8012   5.220   4.825   0.226
   19CHTO   C16 8013   5.364   4.808   0.387
   19CHTO   O11 8014   5.266   4.796   0.490
   19CHTO    H5 8015   5.198   4.859   0.478
   19CHTO    O3 8016   5.179   4.437   0.168
   19CHTO    C6 8017   5.047   4.415   0.227
   19CHTO   H19 8018   5.008   4.504   0.276
   19CHTO    C8 8019   4.945   4.372   0.116
   19CHTO   H21 8020   4.986   4.286   0.063
   19CHTO    O7 8021   4.930   4.483   0.026
   19CHTO    H2 8022   4.878   4.458   3.992
   19CHTO   C12 8023   4.806   4.332   0.180
   19CHTO   H25 8024   4.762   4.425   0.222
   19CHTO    N3 8025   4.710   4.281   0.076
   19CHTO   H12 8026   4.693   4.358   0.002
   19CHTO   H13 8027   4.616   4.254   0.123
   19CHTO   C15 8028   4.829   4.230   0.298
   19CHTO   H28 8029   4.862   4.133   0.261
   19CHTO   O10 8030   4.704   4.212   0.386
   19CHTO    H4 8031   4.634   4.174   0.335
   19CHTO    O5 8032   4.924   4.282   0.392
   19CHTO   C10 8033   5.055   4.304   0.336
   19CHTO   H23 8034   5.091   4.210   0.293
   19CHTO   C17 8035   5.147   4.340   0.453
   19CHTO   O12 8036   5.285   4.338   0.415
   19CHTO    H6 8037   5.338   4.360   0.489
   20CHTO  H203 8038   5.474   9.943   1.049
   20CHTO   O82 8039   5.424   9.904   1.118
   20CHTO  C123 8040   5.353   0.003   1.193
   20CHTO  H227 8041   5.294   9.953   1.271
   20CHTO   O77 8042   5.460   0.080   1.257
   20CHTO  C118 8043   5.414   0.186   1.342
   20CHTO  H222 8044   5.344   0.146   1.418
   20CHTO  C125 8045   5.539   0.248   1.416
   20CHTO   O84 8046   5.599   0.153   1.505
   20CHTO  H205 8047   5.638   0.084   1.455
   20CHTO  C114 8048   5.341   0.291   1.256
   20CHTO  H218 8049   5.410   0.326   1.179
   20CHTO  C116 8050   5.220   0.225   1.183
   20CHTO  H220 8051   5.143   0.198   1.259
   20CHTO   O79 8052   5.158   0.323   1.098
   20CHTO  H201 8053   5.217   0.350   1.030
   20CHTO  C120 8054   5.264   0.096   1.103
   20CHTO  H224 8055   5.324   0.132   1.016
   20CHTO   N21 8056   5.147   0.022   1.048
   20CHTO  H211 8057   5.122   0.059   0.950
   20CHTO  H212 8058   5.063   0.029   1.115
   20CHTO   O75 8059   5.303   0.398   1.344
   20CHTO  C112 8060   5.335   0.545   1.278
   20CHTO  H216 8061   5.335   0.536   1.168
   20CHTO   O73 8062   5.462   0.588   1.328
   20CHTO  C113 8063   5.512   0.706   1.263
   20CHTO  H217 8064   5.522   0.686   1.154
   20CHTO  C124 8065   5.653   0.732   1.318
   20CHTO   O83 8066   5.744   0.624   1.294
   20CHTO  H204 8067   5.762   0.617   1.202
   20CHTO  C109 8068   5.417   0.827   1.286
   20CHTO  H213 8069   5.426   0.855   1.392
   20CHTO  C110 8070   5.269   0.789   1.251
   20CHTO  H214 8071   5.260   0.781   1.143
   20CHTO   O78 8072   5.184   0.897   1.294
   20CHTO  H200 8073   5.199   0.973   1.241
   20CHTO  C111 8074   5.227   0.654   1.317
   20CHTO  H215 8075   5.228   0.666   1.426
   20CHTO   N19 8076   5.089   0.610   1.280
   20CHTO  H207 8077   5.090   0.515   1.229
   20CHTO  H208 8078   5.039   0.683   1.219
   20CHTO   O74 8079   5.456   0.941   1.203
   20CHTO  C115 8080   5.552   1.050   1.271
   20CHTO  H219 8081   5.578   1.023   1.373
   20CHTO   O76 8082   5.690   1.061   1.195
   20CHTO  C122 8083   5.669   1.086   1.055
   20CHTO  H226 8084   5.626   0.996   1.011
   20CHTO  C126 8085   5.808   1.106   0.984
   20CHTO   O85 8086   5.881   1.218   1.035
   20CHTO  H206 8087   5.963   1.225   0.990
   20CHTO  C121 8088   5.572   1.210   1.030
   20CHTO  H225 8089   5.623   1.279   0.960
   20CHTO   O81 8090   5.451   1.168   0.965
   20CHTO  H202 8091   5.404   1.108   1.020
   20CHTO  C119 8092   5.540   1.286   1.162
   20CHTO  H223 8093   5.636   1.320   1.201
   20CHTO  C117 8094   5.475   1.189   1.269
   20CHTO  H221 8095   5.371   1.163   1.248
   20CHTO   N20 8096   5.472   1.254   1.404
   20CHTO  H209 8097   5.420   1.190   1.474
   20CHTO  H210 8098   5.572   1.272   1.439
   20CHTO   O80 8099   5.463   1.428   1.141
   20CHTO  C103 8100   5.533   1.547   1.054
   20CHTO  H190 8101   5.495   1.644   1.088
   20CHTO  C101 8102   5.690   1.555   1.056
   20CHTO  H188 8103   5.731   1.456   1.035
   20CHTO   O68 8104   5.735   1.596   1.200
   20CHTO  H168 8105   5.829   1.592   1.207
   20CHTO   C99 8106   5.745   1.656   0.944
   20CHTO  H186 8107   5.712   1.759   0.969
   20CHTO   N17 8108   5.895   1.659   0.936
   20CHTO  H174 8109   5.927   1.735   0.866
   20CHTO  H175 8110   5.933   1.562   0.908
   20CHTO   C97 8111   5.680   1.622   0.807
   20CHTO  H184 8112   5.714   1.521   0.777
   20CHTO   O64 8113   5.537   1.629   0.820
   20CHTO  C104 8114   5.482   1.527   0.905
   20CHTO  H191 8115   5.513   1.429   0.870
   20CHTO  C108 8116   5.329   1.528   0.897
   20CHTO   O71 8117   5.271   1.652   0.941
   20CHTO  H171 8118   5.283   1.662   1.033
   20CHTO   O62 8119   5.709   1.719   0.703
   20CHTO   C91 8120   5.763   1.669   0.579
   20CHTO  H178 8121   5.814   1.574   0.598
   20CHTO   C92 8122   5.874   1.768   0.530
   20CHTO  H179 8123   5.832   1.870   0.527
   20CHTO   O66 8124   5.978   1.772   0.629
   20CHTO  H166 8125   6.019   1.688   0.638
   20CHTO   C93 8126   5.933   1.729   0.388
   20CHTO  H180 8127   5.991   1.636   0.401
   20CHTO   N16 8128   6.029   1.829   0.335
   20CHTO  H172 8129   6.069   1.796   0.240
   20CHTO  H173 8130   5.981   1.925   0.325
   20CHTO   C94 8131   5.817   1.701   0.286
   20CHTO  H181 8132   5.757   1.791   0.267
   20CHTO   O61 8133   5.728   1.603   0.342
   20CHTO   C95 8134   5.660   1.649   0.460
   20CHTO  H182 8135   5.611   1.743   0.439
   20CHTO  C106 8136   5.546   1.547   0.495
   20CHTO   O69 8137   5.598   1.420   0.536
   20CHTO  H169 8138   5.642   1.428   0.618
   20CHTO   O63 8139   5.878   1.645   0.143
   20CHTO   C96 8140   5.778   1.576   0.040
   20CHTO  H183 8141   5.738   1.488   0.090
   20CHTO   C98 8142   5.850   1.528   3.951
   20CHTO  H185 8143   5.934   1.462   3.976
   20CHTO   O67 8144   5.758   1.446   3.877
   20CHTO  H167 8145   5.801   1.408   3.803
   20CHTO  C102 8146   5.896   1.651   3.859
   20CHTO  H189 8147   5.905   1.609   3.757
   20CHTO   N18 8148   6.029   1.708   3.889
   20CHTO  H176 8149   6.032   1.744   3.991
   20CHTO  H177 8150   6.106   1.633   3.875
   20CHTO  C105 8151   5.786   1.761   3.856
   20CHTO  H192 8152   5.817   1.847   3.915
   20CHTO   O65 8153   5.658   1.718   3.906
   20CHTO  C100 8154   5.657   1.674   0.003
   20CHTO  H187 8155   5.662   1.764   0.066
   20CHTO  C107 8156   5.519   1.609   0.024
   20CHTO   O70 8157   5.503   1.561   0.158
   20CHTO  H170 8158   5.418   1.522   0.167
   20CHTO   O57 8159   5.779   1.801   3.704
   20CHTO   C85 8160   5.688   1.902   3.660
   20CHTO  H157 8161   5.667   1.968   3.747
   20CHTO   C83 8162   5.551   1.837   3.621
   20CHTO  H155 8163   5.510   1.790   3.710
   20CHTO   O56 8164   5.574   1.730   3.527
   20CHTO  H135 8165   5.606   1.765   3.445
   20CHTO   C81 8166   5.453   1.947   3.573
   20CHTO  H153 8167   5.443   2.020   3.653
   20CHTO   N14 8168   5.315   1.896   3.552
   20CHTO  H141 8169   5.249   1.977   3.531
   20CHTO  H142 8170   5.314   1.827   3.470
   20CHTO   C79 8171   5.513   2.022   3.448
   20CHTO  H151 8172   5.447   2.106   3.426
   20CHTO   O52 8173   5.645   2.079   3.479
   20CHTO   C86 8174   5.741   1.985   3.536
   20CHTO  H158 8175   5.766   1.917   3.451
   20CHTO   C90 8176   5.873   2.057   3.572
   20CHTO   O60 8177   5.853   2.162   3.667
   20CHTO  H138 8178   5.935   2.204   3.686
   20CHTO   O50 8179   5.520   1.939   3.331
   20CHTO   C73 8180   5.548   1.912   3.193
   20CHTO  H145 8181   5.649   1.870   3.183
   20CHTO   C74 8182   5.541   2.042   3.108
   20CHTO  H146 8183   5.612   2.113   3.152
   20CHTO   O54 8184   5.592   2.012   2.977
   20CHTO  H133 8185   5.535   1.951   2.933
   20CHTO   C75 8186   5.393   2.099   3.110
   20CHTO  H147 8187   5.371   2.133   3.212
   20CHTO   N13 8188   5.372   2.219   3.026
   20CHTO  H139 8189   5.436   2.300   3.059
   20CHTO  H140 8190   5.396   2.197   2.923
   20CHTO   C76 8191   5.287   1.985   3.075
   20CHTO  H148 8192   5.289   1.966   2.968
   20CHTO   O49 8193   5.312   1.861   3.148
   20CHTO   C77 8194   5.445   1.809   3.138
   20CHTO  H149 8195   5.469   1.786   3.034
   20CHTO   C88 8196   5.448   1.674   3.213
   20CHTO   O58 8197   5.580   1.609   3.203
   20CHTO  H136 8198   5.644   1.658   3.251
   20CHTO   O51 8199   5.145   2.032   3.127
   20CHTO   C78 8200   5.027   1.951   3.072
   20CHTO  H150 8201   5.061   1.860   3.018
   20CHTO   C80 8202   4.945   2.038   2.975
   20CHTO  H152 8203   4.928   2.138   3.023
   20CHTO   O55 8204   5.027   2.059   2.858
   20CHTO  H134 8205   4.985   2.120   2.800
   20CHTO   C84 8206   4.806   1.973   2.938
   20CHTO  H156 8207   4.826   1.883   2.880
   20CHTO   N15 8208   4.719   2.063   2.853
   20CHTO  H143 8209   4.768   2.155   2.832
   20CHTO  H144 8210   4.696   2.014   2.760
   20CHTO   C87 8211   4.733   1.933   3.068
   20CHTO  H159 8212   4.709   2.022   3.127
   20CHTO   O53 8213   4.823   1.839   3.146
   20CHTO   C82 8214   4.942   1.903   3.192
   20CHTO  H154 8215   4.918   1.987   3.258
   20CHTO   C89 8216   5.023   1.802   3.278
   20CHTO   O59 8217   4.952   1.760   3.394
   20CHTO  H137 8218   4.944   1.831   3.455
   20CHTO   O45 8219   4.595   1.850   3.040
   20CHTO   C67 8220   4.515   1.837   3.158
   20CHTO  H124 8221   4.575   1.858   3.246
   20CHTO   C65 8222   4.394   1.937   3.155
   20CHTO  H122 8223   4.368   1.949   3.050
   20CHTO   O44 8224   4.446   2.062   3.204
   20CHTO  H102 8225   4.382   2.130   3.193
   20CHTO   C63 8226   4.263   1.878   3.222
   20CHTO  H120 8227   4.215   1.812   3.151
   20CHTO   N11 8228   4.154   1.978   3.250
   20CHTO  H108 8229   4.118   1.968   3.350
   20CHTO  H109 8230   4.073   1.966   3.181
   20CHTO   C61 8231   4.303   1.786   3.344
   20CHTO  H118 8232   4.209   1.742   3.381
   20CHTO   O40 8233   4.388   1.675   3.303
   20CHTO   C68 8234   4.463   1.688   3.178
   20CHTO  H125 8235   4.397   1.661   3.093
   20CHTO   C72 8236   4.580   1.586   3.178
   20CHTO   O48 8237   4.674   1.608   3.283
   20CHTO  H105 8238   4.743   1.544   3.278
   20CHTO   O38 8239   4.370   1.858   3.450
   20CHTO   C55 8240   4.342   1.815   3.585
   20CHTO  H112 8241   4.282   1.722   3.584
   20CHTO   C56 8242   4.268   1.932   3.663
   20CHTO  H113 8243   4.328   2.023   3.650
   20CHTO   O42 8244   4.141   1.959   3.601
   20CHTO  H100 8245   4.085   1.883   3.606
   20CHTO   C57 8246   4.251   1.898   3.817
   20CHTO  H114 8247   4.176   1.819   3.825
   20CHTO   N10 8248   4.200   2.013   3.897
   20CHTO  H106 8249   4.092   2.013   3.897
   20CHTO  H107 8250   4.235   2.008   3.999
   20CHTO   C58 8251   4.385   1.846   3.875
   20CHTO  H115 8252   4.458   1.930   3.882
   20CHTO   O37 8253   4.439   1.740   3.795
   20CHTO   C59 8254   4.473   1.780   3.661
   20CHTO  H116 8255   4.540   1.866   3.664
   20CHTO   C70 8256   4.547   1.663   3.596
   20CHTO   O46 8257   4.673   1.636   3.657
   20CHTO  H103 8258   4.660   1.603   3.744
   20CHTO   O39 8259   4.362   1.779   4.020
   20CHTO   C60 8260   4.484   1.768   0.055
   20CHTO  H117 8261   4.570   1.770   4.028
   20CHTO   C62 8262   4.499   1.888   0.154
   20CHTO  H119 8263   4.500   1.979   0.090
   20CHTO   O43 8264   4.383   1.894   0.240
   20CHTO  H101 8265   4.380   1.818   0.295
   20CHTO   C66 8266   4.638   1.877   0.232
   20CHTO  H123 8267   4.719   1.875   0.159
   20CHTO   N12 8268   4.663   1.995   0.319
   20CHTO  H110 8269   4.759   1.986   0.367
   20CHTO  H111 8270   4.584   2.005   0.391
   20CHTO   C69 8271   4.644   1.743   0.311
   20CHTO  H126 8272   4.565   1.741   0.389
   20CHTO   O41 8273   4.620   1.623   0.211
   20CHTO   C64 8274   4.490   1.633   0.132
   20CHTO  H121 8275   4.403   1.627   0.201
   20CHTO   C71 8276   4.481   1.514   0.033
   20CHTO   O47 8277   4.473   1.390   0.104
   20CHTO  H104 8278   4.466   1.320   0.043
   20CHTO   O34 8279   4.782   1.721   0.380
   20CHTO   C49 8280   4.907   1.743   0.463
   20CHTO   H91 8281   4.882   1.819   0.537
   20CHTO   C47 8282   5.021   1.795   0.372
   20CHTO   H89 8283   5.104   1.816   0.444
   20CHTO   O33 8284   4.984   1.918   0.308
   20CHTO   H70 8285   5.059   1.955   0.265
   20CHTO   C45 8286   5.063   1.683   0.264
   20CHTO   H87 8287   5.004   1.699   0.172
   20CHTO    N8 8288   5.207   1.705   0.231
   20CHTO   H75 8289   5.263   1.614   0.246
   20CHTO   H76 8290   5.217   1.737   0.128
   20CHTO   C43 8291   5.023   1.535   0.314
   20CHTO   H85 8292   4.918   1.522   0.285
   20CHTO   O29 8293   5.041   1.524   0.456
   20CHTO   C50 8294   4.957   1.612   0.534
   20CHTO   H92 8295   4.869   1.556   0.567
   20CHTO   C54 8296   5.034   1.640   0.665
   20CHTO   O36 8297   4.956   1.717   0.758
   20CHTO   H72 8298   5.006   1.730   0.836
   20CHTO   O27 8299   5.092   1.429   0.245
   20CHTO   C37 8300   5.092   1.348   0.127
   20CHTO   H79 8301   5.024   1.261   0.140
   20CHTO   C38 8302   5.040   1.427   0.003
   20CHTO   H80 8303   5.096   1.522   4.037
   20CHTO   O31 8304   4.900   1.458   0.025
   20CHTO   H68 8305   4.891   1.519   0.096
   20CHTO   C39 8306   5.059   1.347   3.909
   20CHTO   H81 8307   4.991   1.262   3.913
   20CHTO    N7 8308   5.023   1.427   3.787
   20CHTO   H73 8309   5.087   1.513   3.779
   20CHTO   H74 8310   5.032   1.365   3.698
   20CHTO   C40 8311   5.205   1.288   3.899
   20CHTO   H82 8312   5.277   1.369   3.883
   20CHTO   O26 8313   5.236   1.214   4.019
   20CHTO   C41 8314   5.235   1.295   0.099
   20CHTO   H83 8315   5.303   1.381   0.087
   20CHTO   C52 8316   5.288   1.209   0.216
   20CHTO   O35 8317   5.427   1.163   0.194
   20CHTO   H71 8318   5.485   1.236   0.195
   20CHTO   O28 8319   5.217   1.194   3.791
   20CHTO   C42 8320   5.344   1.142   3.739
   20CHTO   H84 8321   5.312   1.079   3.656
   20CHTO   C44 8322   5.428   1.051   3.834
   20CHTO   H86 8323   5.465   1.112   3.917
   20CHTO   O32 8324   5.338   0.951   3.886
   20CHTO   H69 8325   5.277   0.990   3.946
   20CHTO   C48 8326   5.551   0.989   3.757
   20CHTO   H90 8327   5.513   0.927   3.676
   20CHTO    N9 8328   5.634   0.897   3.844
   20CHTO   H77 8329   5.672   0.951   3.929
   20CHTO   H78 8330   5.574   0.813   3.876
   20CHTO   C51 8331   5.637   1.106   3.695
   20CHTO   H93 8332   5.677   1.166   3.777
   20CHTO   O30 8333   5.553   1.183   3.608
   20CHTO   C46 8334   5.437   1.252   3.678
   20CHTO   H88 8335   5.475   1.315   3.758
   20CHTO   C53 8336   5.363   1.338   3.573
   20CHTO   O72 8337   5.447   1.442   3.522
   20CHTO  H199 8338   5.462   1.506   3.589
   20CHTO   O22 8339   5.743   1.058   3.609
   20CHTO   C31 8340   5.866   1.138   3.589
   20CHTO   H59 8341   5.923   1.086   3.510
   20CHTO   C29 8342   5.842   1.283   3.540
   20CHTO   H57 8343   5.777   1.333   3.613
   20CHTO   O21 8344   5.768   1.276   3.417
   20CHTO   H37 8345   5.741   1.362   3.390
   20CHTO   C27 8346   5.977   1.365   3.526
   20CHTO   H55 8347   6.040   1.316   3.450
   20CHTO    N5 8348   5.956   1.507   3.487
   20CHTO   H43 8349   6.002   1.526   3.391
   20CHTO   H44 8350   5.851   1.532   3.483
   20CHTO   C25 8351   6.054   1.354   3.663
   20CHTO   H53 8352   5.992   1.398   3.743
   20CHTO   O17 8353   6.077   1.214   3.696
   20CHTO   C32 8354   5.958   1.136   3.716
   20CHTO   H60 8355   5.903   1.178   3.800
   20CHTO   C36 8356   6.002   0.992   3.749
   20CHTO   O25 8357   6.072   0.984   3.874
   20CHTO   H40 8358   6.014   1.002   3.945
   20CHTO   O15 8359   6.190   1.423   3.661
   20CHTO   C19 8360   6.329   1.442   3.622
   20CHTO   H47 8361   6.324   1.471   3.516
   20CHTO   C20 8362   6.399   1.557   3.702
   20CHTO   H48 8363   6.391   1.542   3.811
   20CHTO   O19 8364   6.330   1.679   3.671
   20CHTO   H35 8365   6.244   1.678   3.708
   20CHTO   C21 8366   6.553   1.569   3.668
   20CHTO   H49 8367   6.563   1.605   3.565
   20CHTO    N4 8368   6.624   1.667   3.754
   20CHTO   H41 8369   6.728   1.675   3.725
   20CHTO   H42 8370   6.619   1.637   3.858
   20CHTO   C22 8371   6.618   1.428   3.674
   20CHTO   H50 8372   6.613   1.393   3.777
   20CHTO   O14 8373   6.547   1.339   3.587
   20CHTO   C23 8374   6.413   1.311   3.628
   20CHTO   H51 8375   6.417   1.270   3.730
   20CHTO   C34 8376   6.357   1.203   3.536
   20CHTO   O23 8377   6.424   1.078   3.553
   20CHTO   H38 8378   6.403   1.042   3.637
   20CHTO   O16 8379   6.753   1.425   3.625
   20CHTO   C24 8380   6.844   1.314   3.700
   20CHTO   H52 8381   6.788   1.260   3.776
   20CHTO   C26 8382   6.965   1.384   3.764
   20CHTO   H54 8383   7.013   1.449   3.687
   20CHTO   O20 8384   6.920   1.474   3.867
   20CHTO   H36 8385   6.992   1.525   3.899
   20CHTO   C30 8386   7.069   1.284   3.825
   20CHTO   H58 8387   7.067   1.290   3.935
   20CHTO    N6 8388   7.208   1.320   3.787
   20CHTO   H45 8389   7.220   1.315   3.680
   20CHTO   H46 8390   7.278   1.251   3.833
   20CHTO   C33 8391   7.035   1.135   3.791
   20CHTO   H61 8392   7.123   1.071   3.809
   20CHTO   O18 8393   6.994   1.119   3.654
   20CHTO   C28 8394   6.895   1.208   3.597
   20CHTO   H56 8395   6.939   1.260   3.513
   20CHTO   C35 8396   6.777   1.124   3.543
   20CHTO   O24 8397   6.816   1.031   3.442
   20CHTO   H39 8398   6.740   0.984   3.412
   20CHTO    O9 8399   6.934   1.089   3.883
   20CHTO   C13 8400   6.947   0.932   3.920
   20CHTO   H26 8401   7.054   0.909   3.929
   20CHTO   C11 8402   6.877   0.843   3.810
   20CHTO   H24 8403   6.943   0.842   3.721
   20CHTO    O8 8404   6.751   0.901   3.772
   20CHTO    H3 8405   6.714   0.853   3.700
   20CHTO    C9 8406   6.862   0.700   3.867
   20CHTO   H22 8407   6.961   0.673   3.907
   20CHTO    N2 8408   6.834   0.598   3.762
   20CHTO   H10 8409   6.916   0.528   3.755
   20CHTO   H11 8410   6.742   0.545   3.784
   20CHTO    C7 8411   6.759   0.706   3.988
   20CHTO   H20 8412   6.793   0.624   0.015
   20CHTO    O4 8413   6.761   0.832   0.018
   20CHTO   C14 8414   6.887   0.901   0.024
   20CHTO   H27 8415   6.959   0.836   0.078
   20CHTO   C18 8416   6.868   1.028   0.111
   20CHTO   O13 8417   6.992   1.095   0.135
   20CHTO    H7 8418   6.977   1.171   0.188
   20CHTO    O2 8419   6.604   0.677   3.940
   20CHTO    C1 8420   6.513   0.650   0.006
   20CHTO   H14 8421   6.553   0.691   0.101
   20CHTO    C2 8422   6.485   0.495   0.026
   20CHTO   H15 8423   6.457   0.456   3.967
   20CHTO    O6 8424   6.607   0.432   0.069
   20CHTO    H1 8425   6.596   0.339   0.072
   20CHTO    C3 8426   6.366   0.470   0.131
   20CHTO   H16 8427   6.400   0.499   0.232
   20CHTO    N1 8428   6.325   0.325   0.138
   20CHTO    H8 8429   6.409   0.265   0.170
   20CHTO    H9 8430   6.291   0.292   0.041
   20CHTO    C4 8431   6.244   0.564   0.099
   20CHTO   H17 8432   6.199   0.532   0.005
   20CHTO    O1 8433   6.288   0.701   0.088
   20CHTO    C5 8434   6.378   0.724   4.020
   20CHTO   H18 8435   6.336   0.686   3.927
   20CHTO   C16 8436   6.395   0.878   4.009
   20CHTO   O11 8437   6.460   0.918   3.888
   20CHTO    H5 8438   6.549   0.889   3.888
   20CHTO    O3 8439   6.145   0.563   0.204
   20CHTO    C6 8440   6.017   0.624   0.164
   20CHTO   H19 8441   6.026   0.688   0.076
   20CHTO    C8 8442   5.911   0.514   0.132
   20CHTO   H21 8443   5.897   0.452   0.221
   20CHTO    O7 8444   5.962   0.433   0.024
   20CHTO    H2 8445   5.905   0.361   0.008
   20CHTO   C12 8446   5.773   0.583   0.094
   20CHTO   H25 8447   5.790   0.634   4.037
   20CHTO    N3 8448   5.666   0.481   0.071
   20CHTO   H12 8449   5.694   0.415   4.031
   20CHTO   H13 8450   5.573   0.530   0.047
   20CHTO   C15 8451   5.734   0.691   0.202
   20CHTO   H28 8452   5.696   0.646   0.293
   20CHTO   O10 8453   5.632   0.789   0.148
   20CHTO    H4 8454   5.552   0.745   0.129
   20CHTO    O5 8455   5.843   0.780   0.232
   20CHTO   C10 8456   5.961   0.713   0.279
   20CHTO   H23 8457   5.935   0.652   0.366
   20CHTO   C17 8458   6.059   0.822   0.326
   20CHTO   O12 8459   6.167   0.768   0.402
   20CHTO    H6 8460   6.136   0.737   0.485
   21GLOH   H03 8461   8.179   3.590   3.655
   21GLOH    O1 8462   8.160   3.523   3.724
   21GLOH    C1 8463   8.132   3.593   3.847
   21GLOH   H02 8464   8.225   3.613   3.900
   21GLOH   H08 8465   8.070   3.531   3.912
   21GLOH    C2 8466   8.059   3.726   3.823
   21GLOH   H04 8467   7.964   3.704   3.772
   21GLOH    O2 8468   8.031   3.792   3.948
   21GLOH   H05 8469   8.117   3.808   3.997
   21GLOH    C3 8470   8.142   3.818   3.731
   21GLOH   H06 8471   8.231   3.850   3.786
   21GLOH   H07 8472   8.084   3.908   3.711
   21GLOH    O3 8473   8.181   3.754   3.608
   21GLOH   H01 8474   8.215   3.821   3.545
   22GLOH   H03 8475   3.826   4.673   4.025
   22GLOH    O1 8476   3.763   4.733   3.979
   22GLOH    C1 8477   3.774   4.863   4.039
   22GLOH   H02 8478   3.837   4.928   3.977
   22GLOH   H08 8479   3.823   4.857   0.096
   22GLOH    C2 8480   3.638   4.932   0.017
   22GLOH   H04 8481   3.569   4.860   0.065
   22GLOH    O2 8482   3.655   5.046   0.103
   22GLOH   H05 8483   3.612   5.025   0.190
   22GLOH    C3 8484   3.577   4.975   3.923
   22GLOH   H06 8485   3.572   4.888   3.858
   22GLOH   H07 8486   3.645   5.046   3.876
   22GLOH    O3 8487   3.445   5.034   3.937
   22GLOH   H01 8488   3.416   5.067   3.850
   23GLOH   H03 8489   2.613   5.127   0.753
   23GLOH    O1 8490   2.627   5.194   0.681
   23GLOH    C1 8491   2.538   5.163   0.572
   23GLOH   H02 8492   2.536   5.055   0.554
   23GLOH   H08 8493   2.576   5.208   0.480
   23GLOH    C2 8494   2.394   5.212   0.596
   23GLOH   H04 8495   2.332   5.174   0.514
   23GLOH    O2 8496   2.340   5.163   0.721
   23GLOH   H05 8497   2.318   5.067   0.709
   23GLOH    C3 8498   2.387   5.366   0.592
   23GLOH   H06 8499   2.456   5.404   0.668
   23GLOH   H07 8500   2.287   5.395   0.622
   23GLOH    O3 8501   2.419   5.422   0.463
   23GLOH   H01 8502   2.398   5.357   0.391
   24GLOH   H03 8503   0.459   4.099   1.529
   24GLOH    O1 8504   0.535   4.050   1.569
   24GLOH    C1 8505   0.516   3.909   1.549
   24GLOH   H02 8506   0.409   3.886   1.543
   24GLOH   H08 8507   0.554   3.854   1.636
   24GLOH    C2 8508   0.584   3.852   1.423
   24GLOH   H04 8509   0.564   3.743   1.421
   24GLOH    O2 8510   0.531   3.911   1.303
   24GLOH   H05 8511   0.588   3.890   1.223
   24GLOH    C3 8512   0.737   3.870   1.431
   24GLOH   H06 8513   0.758   3.977   1.435
   24GLOH   H07 8514   0.781   3.833   1.339
   24GLOH    O3 8515   0.795   3.803   1.544
   24GLOH   H01 8516   0.779   3.705   1.539
   25GLOH   H03 8517   8.827   1.737   3.606
   25GLOH    O1 8518   8.898   1.777   3.553
   25GLOH    C1 8519   8.902   1.919   3.574
   25GLOH   H02 8520   8.924   1.941   3.679
   25GLOH   H08 8521   8.804   1.964   3.552
   25GLOH    C2 8522   9.008   1.988   3.487
   25GLOH   H04 8523   9.108   1.954   3.519
   25GLOH    O2 8524   8.988   1.955   3.348
   25GLOH   H05 8525   8.953   1.863   3.347
   25GLOH    C3 8526   9.001   2.141   3.506
   25GLOH   H06 8527   8.903   2.175   3.471
   25GLOH   H07 8528   9.076   2.187   3.443
   25GLOH    O3 8529   9.021   2.178   3.644
   25GLOH   H01 8530   9.001   2.273   3.656
   26GLOH   H03 8531   0.253   0.667   0.033
   26GLOH    O1 8532   0.302   0.706   0.108
   26GLOH    C1 8533   0.439   0.661   0.103
   26GLOH   H02 8534   0.490   0.702   0.016
   26GLOH   H08 8535   0.443   0.553   0.095
   26GLOH    C2 8536   0.518   0.703   0.229
   26GLOH   H04 8537   0.460   0.671   0.316
   26GLOH    O2 8538   0.646   0.637   0.230
   26GLOH   H05 8539   0.641   0.562   0.295
   26GLOH    C3 8540   0.535   0.856   0.236
   26GLOH   H06 8541   0.436   0.902   0.231
   26GLOH   H07 8542   0.589   0.889   0.148
   26GLOH    O3 8543   0.603   0.899   0.356
   26GLOH   H01 8544   0.618   0.819   0.413
   27GLOH   H03 8545   8.358   7.303   0.886
   27GLOH    O1 8546   8.332   7.396   0.863
   27GLOH    C1 8547   8.400   7.481   0.957
   27GLOH   H02 8548   8.506   7.487   0.932
   27GLOH   H08 8549   8.393   7.439   1.057
   27GLOH    C2 8550   8.343   7.625   0.962
   27GLOH   H04 8551   8.238   7.617   0.993
   27GLOH    O2 8552   8.413   7.704   1.060
   27GLOH   H05 8553   8.507   7.721   1.028
   27GLOH    C3 8554   8.344   7.690   0.822
   27GLOH   H06 8555   8.304   7.791   0.832
   27GLOH   H07 8556   8.274   7.635   0.759
   27GLOH    O3 8557   8.474   7.695   0.759
   27GLOH   H01 8558   8.514   7.784   0.773
   28GLOH   H03 8559   0.444   5.319   0.329
   28GLOH    O1 8560   0.467   5.383   0.258
   28GLOH    C1 8561   0.554   5.487   0.309
   28GLOH   H02 8562   0.525   5.514   0.410
   28GLOH   H08 8563   0.543   5.577   0.249
   28GLOH    C2 8564   0.703   5.447   0.310
   28GLOH   H04 8565   0.758   5.525   0.366
   28GLOH    O2 8566   0.722   5.321   0.379
   28GLOH   H05 8567   0.635   5.274   0.380
   28GLOH    C3 8568   0.762   5.441   0.168
   28GLOH   H06 8569   0.708   5.364   0.112
   28GLOH   H07 8570   0.865   5.408   0.175
   28GLOH    O3 8571   0.754   5.566   0.098
   28GLOH   H01 8572   0.817   5.632   0.137
   29GLOH   H03 8573   3.102   5.879   3.855
   29GLOH    O1 8574   3.035   5.903   3.922
   29GLOH    C1 8575   2.919   5.954   3.853
   29GLOH   H02 8576   2.889   5.886   3.773
   29GLOH   H08 8577   2.943   6.049   3.805
   29GLOH    C2 8578   2.796   5.977   3.944
   29GLOH   H04 8579   2.827   6.050   4.021
   29GLOH    O2 8580   2.685   6.033   3.870
   29GLOH   H05 8581   2.648   5.963   3.813
   29GLOH    C3 8582   2.753   5.849   4.016
   29GLOH   H06 8583   2.649   5.861   0.007
   29GLOH   H07 8584   2.812   5.839   0.067
   29GLOH    O3 8585   2.763   5.730   3.936
   29GLOH   H01 8586   2.814   5.664   3.988
   30GLOH   H03 8587   8.519   1.838   2.271
   30GLOH    O1 8588   8.609   1.816   2.309
   30GLOH    C1 8589   8.590   1.700   2.393
   30GLOH   H02 8590   8.686   1.663   2.425
   30GLOH   H08 8591   8.542   1.620   2.336
   30GLOH    C2 8592   8.504   1.730   2.518
   30GLOH   H04 8593   8.418   1.791   2.488
   30GLOH    O2 8594   8.456   1.605   2.573
   30GLOH   H05 8595   8.534   1.543   2.583
   30GLOH    C3 8596   8.586   1.808   2.622
   30GLOH   H06 8597   8.628   1.896   2.573
   30GLOH   H07 8598   8.670   1.746   2.654
   30GLOH    O3 8599   8.507   1.848   2.736
   30GLOH   H01 8600   8.484   1.945   2.721
   31GLOH   H03 8601   4.477   4.658   1.510
   31GLOH    O1 8602   4.421   4.717   1.452
   31GLOH    C1 8603   4.289   4.660   1.444
   31GLOH   H02 8604   4.258   4.621   1.541
   31GLOH   H08 8605   4.290   4.575   1.376
   31GLOH    C2 8606   4.183   4.761   1.395
   31GLOH   H04 8607   4.204   4.783   1.290
   31GLOH    O2 8608   4.051   4.705   1.408
   31GLOH   H05 8609   4.054   4.612   1.370
   31GLOH    C3 8610   4.192   4.892   1.475
   31GLOH   H06 8611   4.169   4.869   1.580
   31GLOH   H07 8612   4.115   4.960   1.439
   31GLOH    O3 8613   4.322   4.952   1.465
   31GLOH   H01 8614   4.385   4.876   1.456
   32GLOH   H03 8615   9.084   3.708   3.835
   32GLOH    O1 8616   9.165   3.764   3.833
   32GLOH    C1 8617   9.129   3.903   3.843
   32GLOH   H02 8618   9.060   3.918   3.926
   32GLOH   H08 8619   9.077   3.935   3.752
   32GLOH    C2 8620   9.252   3.994   3.863
   32GLOH   H04 8621   9.316   3.985   3.774
   32GLOH    O2 8622   9.210   4.132   3.875
   32GLOH   H05 8623   9.146   4.142   3.951
   32GLOH    C3 8624   9.332   3.951   3.986
   32GLOH   H06 8625   9.273   3.971   0.035
   32GLOH   H07 8626   9.422   4.012   3.993
   32GLOH    O3 8627   9.366   3.811   3.979
   32GLOH   H01 8628   9.299   3.771   3.918
   33GLOH   H03 8629   1.006   8.746   0.868
   33GLOH    O1 8630   0.981   8.663   0.821
   33GLOH    C1 8631   1.097   8.579   0.813
   33GLOH   H02 8632   1.073   8.482   0.769
   33GLOH   H08 8633   1.135   8.560   0.913
   33GLOH    C2 8634   1.210   8.643   0.731
   33GLOH   H04 8635   1.235   8.740   0.778
   33GLOH    O2 8636   1.328   8.560   0.734
   33GLOH   H05 8637   1.317   8.485   0.799
   33GLOH    C3 8638   1.166   8.674   0.586
   33GLOH   H06 8639   1.241   8.741   0.542
   33GLOH   H07 8640   1.074   8.731   0.590
   33GLOH    O3 8641   1.149   8.559   0.500
   33GLOH   H01 8642   1.064   8.514   0.524
   34GLOH   H03 8643   1.452   8.640   0.742
   34GLOH    O1 8644   1.541   8.685   0.741
   34GLOH    C1 8645   1.540   8.794   0.834
   34GLOH   H02 8646   1.513   8.760   0.934
   34GLOH   H08 8647   1.466   8.868   0.805
   34GLOH    C2 8648   1.679   8.860   0.840
   34GLOH   H04 8649   1.703   8.896   0.739
   34GLOH    O2 8650   1.678   8.973   0.930
   34GLOH   H05 8651   1.770   8.990   0.965
   34GLOH    C3 8652   1.786   8.754   0.877
   34GLOH   H06 8653   1.882   8.804   0.885
   34GLOH   H07 8654   1.794   8.685   0.794
   34GLOH    O3 8655   1.757   8.682   0.999
   34GLOH   H01 8656   1.680   8.621   0.983
   35GLOH   H03 8657   6.500   0.335   3.361
   35GLOH    O1 8658   6.446   0.366   3.286
   35GLOH    C1 8659   6.340   0.272   3.260
   35GLOH   H02 8660   6.281   0.255   3.350
   35GLOH   H08 8661   6.382   0.175   3.230
   35GLOH    C2 8662   6.246   0.319   3.148
   35GLOH   H04 8663   6.305   0.332   3.056
   35GLOH    O2 8664   6.144   0.220   3.124
   35GLOH   H05 8665   6.081   0.220   3.202
   35GLOH    C3 8666   6.185   0.456   3.186
   35GLOH   H06 8667   6.266   0.528   3.196
   35GLOH   H07 8668   6.138   0.447   3.284
   35GLOH    O3 8669   6.089   0.502   3.089
   35GLOH   H01 8670   6.009   0.445   3.096
   36GLOH   H03 8671   8.013   9.901   2.421
   36GLOH    O1 8672   8.063   9.851   2.491
   36GLOH    C1 8673   8.164   9.773   2.426
   36GLOH   H02 8674   8.250   9.836   2.403
   36GLOH   H08 8675   8.129   9.732   2.332
   36GLOH    C2 8676   8.214   9.657   2.514
   36GLOH   H04 8677   8.260   9.699   2.605
   36GLOH    O2 8678   8.107   9.568   2.553
   36GLOH   H05 8679   8.020   9.617   2.554
   36GLOH    C3 8680   8.321   9.576   2.438
   36GLOH   H06 8681   8.274   9.533   2.350
   36GLOH   H07 8682   8.353   9.493   2.501
   36GLOH    O3 8683   8.434   9.657   2.399
   36GLOH   H01 8684   8.516   9.600   2.400
   37GLOH   H03 8685   3.582   6.025   2.758
   37GLOH    O1 8686   3.548   5.993   2.846
   37GLOH    C1 8687   3.532   5.850   2.837
   37GLOH   H02 8688   3.501   5.821   2.736
   37GLOH   H08 8689   3.454   5.815   2.905
   37GLOH    C2 8690   3.663   5.775   2.870
   37GLOH   H04 8691   3.686   5.797   2.975
   37GLOH    O2 8692   3.647   5.631   2.858
   37GLOH   H05 8693   3.583   5.609   2.785
   37GLOH    C3 8694   3.780   5.827   2.786
   37GLOH   H06 8695   3.867   5.765   2.809
   37GLOH   H07 8696   3.805   5.928   2.820
   37GLOH    O3 8697   3.756   5.827   2.644
   37GLOH   H01 8698   3.826   5.770   2.604
   38GLOH   H03 8699   9.336   4.409   2.657
   38GLOH    O1 8700   9.349   4.314   2.682
   38GLOH    C1 8701   9.275   4.291   2.804
   38GLOH   H02 8702   9.168   4.305   2.786
   38GLOH   H08 8703   9.303   4.363   2.880
   38GLOH    C2 8704   9.296   4.150   2.860
   38GLOH   H04 8705   9.404   4.134   2.872
   38GLOH    O2 8706   9.233   4.135   2.989
   38GLOH   H05 8707   9.295   4.176   3.056
   38GLOH    C3 8708   9.245   4.045   2.760
   38GLOH   H06 8709   9.140   4.063   2.739
   38GLOH   H07 8710   9.253   3.946   2.804
   38GLOH    O3 8711   9.323   4.054   2.639
   38GLOH   H01 8712   9.329   4.151   2.619
   39GLOH   H03 8713   7.899   5.442   0.520
   39GLOH    O1 8714   7.918   5.379   0.446
   39GLOH    C1 8715   7.909   5.449   0.320
   39GLOH   H02 8716   7.804   5.458   0.291
   39GLOH   H08 8717   7.958   5.391   0.242
   39GLOH    C2 8718   7.971   5.590   0.325
   39GLOH   H04 8719   8.074   5.580   0.363
   39GLOH    O2 8720   7.977   5.649   0.193
   39GLOH   H05 8721   8.043   5.594   0.139
   39GLOH    C3 8722   7.892   5.679   0.422
   39GLOH   H06 8723   7.787   5.679   0.391
   39GLOH   H07 8724   7.928   5.781   0.413
   39GLOH    O3 8725   7.904   5.633   0.557
   39GLOH   H01 8726   8.000   5.650   0.583
   40GLOH   H03 8727   3.227   8.861   3.036
   40GLOH    O1 8728   3.266   8.795   2.973
   40GLOH    C1 8729   3.215   8.823   2.841
   40GLOH   H02 8730   3.271   8.904   2.794
   40GLOH   H08 8731   3.111   8.856   2.846
   40GLOH    C2 8732   3.222   8.700   2.749
   40GLOH   H04 8733   3.160   8.621   2.793
   40GLOH    O2 8734   3.171   8.729   2.616
   40GLOH   H05 8735   3.132   8.821   2.611
   40GLOH    C3 8736   3.366   8.647   2.739
   40GLOH   H06 8737   3.426   8.718   2.682
   40GLOH   H07 8738   3.365   8.554   2.681
   40GLOH    O3 8739   3.424   8.625   2.869
   40GLOH   H01 8740   3.394   8.703   2.923
   41GLOH   H03 8741   3.186   5.909   0.974
   41GLOH    O1 8742   3.239   5.827   0.960
   41GLOH    C1 8743   3.229   5.749   1.081
   41GLOH   H02 8744   3.125   5.721   1.097
   41GLOH   H08 8745   3.260   5.808   1.167
   41GLOH    C2 8746   3.313   5.620   1.077
   41GLOH   H04 8747   3.419   5.649   1.067
   41GLOH    O2 8748   3.297   5.546   1.200
   41GLOH   H05 8749   3.214   5.579   1.249
   41GLOH    C3 8750   3.275   5.536   0.954
   41GLOH   H06 8751   3.172   5.502   0.965
   41GLOH   H07 8752   3.338   5.447   0.952
   41GLOH    O3 8753   3.290   5.611   0.833
   41GLOH   H01 8754   3.274   5.706   0.858
   42GLOH   H03 8755   5.051   1.542   1.533
   42GLOH    O1 8756   4.970   1.580   1.577
   42GLOH    C1 8757   4.910   1.479   1.661
   42GLOH   H02 8758   4.917   1.381   1.613
   42GLOH   H08 8759   4.803   1.499   1.672
   42GLOH    C2 8760   4.969   1.467   1.802
   42GLOH   H04 8761   4.898   1.410   1.864
   42GLOH    O2 8762   5.096   1.398   1.803
   42GLOH   H05 8763   5.100   1.341   1.885
   42GLOH    C3 8764   4.987   1.605   1.867
   42GLOH   H06 8765   5.060   1.662   1.810
   42GLOH   H07 8766   5.030   1.590   1.966
   42GLOH    O3 8767   4.864   1.679   1.879
   42GLOH   H01 8768   4.843   1.719   1.790
   43GLOH   H03 8769   9.476   0.919   1.897
   43GLOH    O1 8770   9.395   0.885   1.943
   43GLOH    C1 8771   9.354   0.980   2.044
   43GLOH   H02 8772   9.271   0.940   2.102
   43GLOH   H08 8773   9.319   1.071   1.997
   43GLOH    C2 8774   9.466   1.019   2.143
   43GLOH   H04 8775   9.541   1.076   2.087
   43GLOH    O2 8776   9.412   1.105   2.246
   43GLOH   H05 8777   9.469   1.100   2.329
   43GLOH    C3 8778   9.536   0.895   2.201
   43GLOH   H06 8779   9.616   0.929   2.267
   43GLOH   H07 8780   9.585   0.843   2.118
   43GLOH    O3 8781   9.448   0.805   2.271
   43GLOH   H01 8782   9.507   0.733   2.305
   44GLOH   H03 8783   1.824   9.312   1.188
   44GLOH    O1 8784   1.771   9.262   1.255
   44GLOH    C1 8785   1.848   9.251   1.376
   44GLOH   H02 8786   1.780   9.248   1.462
   44GLOH   H08 8787   1.911   9.339   1.389
   44GLOH    C2 8788   1.938   9.127   1.381
   44GLOH   H04 8789   1.873   9.038   1.378
   44GLOH    O2 8790   2.031   9.120   1.271
   44GLOH   H05 8791   2.058   9.023   1.262
   44GLOH    C3 8792   2.014   9.125   1.514
   44GLOH   H06 8793   2.070   9.218   1.524
   44GLOH   H07 8794   2.087   9.044   1.512
   44GLOH    O3 8795   1.925   9.109   1.625
   44GLOH   H01 8796   1.913   9.010   1.639
   45GLOH   H03 8797   2.502   1.904   0.618
   45GLOH    O1 8798   2.540   1.868   0.533
   45GLOH    C1 8799   2.683   1.867   0.546
   45GLOH   H02 8800   2.712   1.821   0.641
   45GLOH   H08 8801   2.721   1.969   0.550
   45GLOH    C2 8802   2.758   1.793   0.433
   45GLOH   H04 8803   2.864   1.819   0.443
   45GLOH    O2 8804   2.745   1.649   0.442
   45GLOH   H05 8805   2.758   1.621   0.538
   45GLOH    C3 8806   2.711   1.843   0.295
   45GLOH   H06 8807   2.605   1.823   0.285
   45GLOH   H07 8808   2.762   1.784   0.218
   45GLOH    O3 8809   2.739   1.983   0.277
   45GLOH   H01 8810   2.664   2.036   0.315
   46GLOH   H03 8811   4.672   9.201   0.170
   46GLOH    O1 8812   4.641   9.279   0.119
   46GLOH    C1 8813   4.688   9.265   4.024
   46GLOH   H02 8814   4.626   9.325   3.957
   46GLOH   H08 8815   4.677   9.162   3.991
   46GLOH    C2 8816   4.835   9.307   4.004
   46GLOH   H04 8817   4.867   9.273   3.904
   46GLOH    O2 8818   4.852   9.450   4.013
   46GLOH   H05 8819   4.810   9.493   3.936
   46GLOH    C3 8820   4.926   9.237   0.067
   46GLOH   H06 8821   4.901   9.275   0.166
   46GLOH   H07 8822   5.029   9.265   0.048
   46GLOH    O3 8823   4.911   9.094   0.064
   46GLOH   H01 8824   4.846   9.069   0.133
   47GLOH   H03 8825   9.732   7.383   3.804
   47GLOH    O1 8826   9.689   7.294   3.800
   47GLOH    C1 8827   9.647   7.273   3.664
   47GLOH   H02 8828   9.563   7.204   3.662
   47GLOH   H08 8829   9.728   7.224   3.609
   47GLOH    C2 8830   9.609   7.402   3.587
   47GLOH   H04 8831   9.675   7.409   3.499
   47GLOH    O2 8832   9.472   7.398   3.541
   47GLOH   H05 8833   9.464   7.343   3.461
   47GLOH    C3 8834   9.631   7.528   3.672
   47GLOH   H06 8835   9.556   7.529   3.752
   47GLOH   H07 8836   9.613   7.615   3.610
   47GLOH    O3 8837   9.764   7.533   3.728
   47GLOH   H01 8838   9.824   7.578   3.666
   48GLOH   H03 8839   9.061   7.236   2.783
   48GLOH    O1 8840   9.091   7.141   2.789
   48GLOH    C1 8841   9.189   7.131   2.893
   48GLOH   H02 8842   9.169   7.044   2.956
   48GLOH   H08 8843   9.186   7.218   2.959
   48GLOH    C2 8844   9.331   7.119   2.835
   48GLOH   H04 8845   9.348   7.207   2.770
   48GLOH    O2 8846   9.430   7.118   2.939
   48GLOH   H05 8847   9.466   7.211   2.949
   48GLOH    C3 8848   9.341   6.993   2.746
   48GLOH   H06 8849   9.438   6.995   2.697
   48GLOH   H07 8850   9.267   7.002   2.666
   48GLOH    O3 8851   9.321   6.869   2.817
   48GLOH   H01 8852   9.370   6.872   2.903
   49GLOH   H03 8853   4.942   7.880   0.889
   49GLOH    O1 8854   4.923   7.878   0.986
   49GLOH    C1 8855   4.912   7.740   1.027
   49GLOH   H02 8856   5.008   7.690   1.018
   49GLOH   H08 8857   4.842   7.687   0.963
   49GLOH    C2 8858   4.864   7.725   1.173
   49GLOH   H04 8859   4.763   7.769   1.181
   49GLOH    O2 8860   4.857   7.586   1.212
   49GLOH   H05 8861   4.804   7.535   1.144
   49GLOH    C3 8862   4.957   7.803   1.268
   49GLOH   H06 8863   5.057   7.760   1.262
   49GLOH   H07 8864   4.923   7.789   1.371
   49GLOH    O3 8865   4.960   7.943   1.235
   49GLOH   H01 8866   4.961   7.946   1.136
   50GLOH   H03 8867   0.219   5.175   1.798
   50GLOH    O1 8868   0.137   5.127   1.826
   50GLOH    C1 8869   0.054   5.115   1.708
   50GLOH   H02 8870   0.114   5.124   1.618
   50GLOH   H08 8871   9.982   5.198   1.705
   50GLOH    C2 8872   9.975   4.983   1.700
   50GLOH   H04 8873   9.910   4.976   1.788
   50GLOH    O2 8874   9.894   4.988   1.580
   50GLOH   H05 8875   9.901   4.902   1.530
   50GLOH    C3 8876   0.073   4.863   1.701
   50GLOH   H06 8877   0.134   4.870   1.791
   50GLOH   H07 8878   0.141   4.874   1.616
   50GLOH    O3 8879   0.008   4.735   1.695
   50GLOH   H01 8880   9.943   4.725   1.770
   51GLOH   H03 8881   8.318   4.584   1.643
   51GLOH    O1 8882   8.351   4.552   1.732
   51GLOH    C1 8883   8.289   4.637   1.831
   51GLOH   H02 8884   8.365   4.688   1.890
   51GLOH   H08 8885   8.232   4.577   1.902
   51GLOH    C2 8886   8.193   4.743   1.772
   51GLOH   H04 8887   8.097   4.694   1.753
   51GLOH    O2 8888   8.171   4.849   1.868
   51GLOH   H05 8889   8.156   4.935   1.819
   51GLOH    C3 8890   8.247   4.797   1.638
   51GLOH   H06 8891   8.339   4.851   1.657
   51GLOH   H07 8892   8.175   4.869   1.598
   51GLOH    O3 8893   8.268   4.692   1.542
   51GLOH   H01 8894   8.324   4.727   1.468
   52GLOH   H03 8895   5.980   0.100   3.317
   52GLOH    O1 8896   5.993   0.198   3.325
   52GLOH    C1 8897   5.865   0.264   3.323
   52GLOH   H02 8898   5.876   0.365   3.362
   52GLOH   H08 8899   5.794   0.213   3.388
   52GLOH    C2 8900   5.803   0.276   3.182
   52GLOH   H04 8901   5.701   0.317   3.195
   52GLOH    O2 8902   5.878   0.364   3.097
   52GLOH   H05 8903   5.823   0.380   3.015
   52GLOH    C3 8904   5.789   0.138   3.116
   52GLOH   H06 8905   5.888   0.092   3.109
   52GLOH   H07 8906   5.754   0.151   3.014
   52GLOH    O3 8907   5.698   0.053   3.188
   52GLOH   H01 8908   5.717   9.959   3.160
   53GLOH   H03 8909   7.282   7.485   3.061
   53GLOH    O1 8910   7.204   7.473   3.119
   53GLOH    C1 8911   7.087   7.535   3.061
   53GLOH   H02 8912   7.065   7.491   2.963
   53GLOH   H08 8913   7.105   7.641   3.043
   53GLOH    C2 8914   6.962   7.520   3.150
   53GLOH   H04 8915   6.875   7.553   3.092
   53GLOH    O2 8916   6.942   7.382   3.185
   53GLOH   H05 8917   7.031   7.347   3.209
   53GLOH    C3 8918   6.970   7.613   3.272
   53GLOH   H06 8919   7.058   7.585   3.331
   53GLOH   H07 8920   6.883   7.594   3.335
   53GLOH    O3 8921   6.976   7.752   3.236
   53GLOH   H01 8922   6.930   7.769   3.150
   54GLOH   H03 8923   2.496   6.342   0.377
   54GLOH    O1 8924   2.531   6.311   0.465
   54GLOH    C1 8925   2.674   6.298   0.453
   54GLOH   H02 8926   2.721   6.395   0.438
   54GLOH   H08 8927   2.698   6.238   0.365
   54GLOH    C2 8928   2.739   6.231   0.575
   54GLOH   H04 8929   2.689   6.134   0.590
   54GLOH    O2 8930   2.879   6.208   0.549
   54GLOH   H05 8931   2.893   6.109   0.544
   54GLOH    C3 8932   2.723   6.316   0.702
   54GLOH   H06 8933   2.620   6.351   0.709
   54GLOH   H07 8934   2.785   6.405   0.693
   54GLOH    O3 8935   2.759   6.243   0.821
   54GLOH   H01 8936   2.724   6.150   0.811
   55GLOH   H03 8937   2.601   1.834   1.399
   55GLOH    O1 8938   2.534   1.878   1.339
   55GLOH    C1 8939   2.569   2.017   1.330
   55GLOH   H02 8940   2.667   2.027   1.283
   55GLOH   H08 8941   2.577   2.061   1.429
   55GLOH    C2 8942   2.468   2.102   1.249
   55GLOH   H04 8943   2.442   2.045   1.159
   55GLOH    O2 8944   2.346   2.130   1.322
   55GLOH   H05 8945   2.294   2.045   1.328
   55GLOH    C3 8946   2.534   2.233   1.205
   55GLOH   H06 8947   2.582   2.278   1.292
   55GLOH   H07 8948   2.456   2.302   1.172
   55GLOH    O3 8949   2.630   2.213   1.100
   55GLOH   H01 8950   2.720   2.216   1.143
   56GLOH   H03 8951   8.472   7.063   3.885
   56GLOH    O1 8952   8.460   7.145   3.938
   56GLOH    C1 8953   8.320   7.176   3.942
   56GLOH   H02 8954   8.269   7.110   4.012
   56GLOH   H08 8955   8.274   7.161   3.844
   56GLOH    C2 8956   8.293   7.322   3.986
   56GLOH   H04 8957   8.339   7.337   0.044
   56GLOH    O2 8958   8.352   7.415   3.893
   56GLOH   H05 8959   8.441   7.383   3.871
   56GLOH    C3 8960   8.142   7.347   3.999
   56GLOH   H06 8961   8.094   7.318   3.905
   56GLOH   H07 8962   8.125   7.454   4.012
   56GLOH    O3 8963   8.086   7.273   0.068
   56GLOH   H01 8964   8.014   7.329   0.108
   57GLOH   H03 8965   7.904   0.486   3.683
   57GLOH    O1 8966   7.806   0.489   3.691
   57GLOH    C1 8967   7.747   0.472   3.561
   57GLOH   H02 8968   7.770   0.374   3.521
   57GLOH   H08 8969   7.787   0.546   3.491
   57GLOH    C2 8970   7.594   0.488   3.566
   57GLOH   H04 8971   7.571   0.591   3.599
   57GLOH    O2 8972   7.538   0.469   3.434
   57GLOH   H05 8973   7.510   0.556   3.397
   57GLOH    C3 8974   7.533   0.390   3.668
   57GLOH   H06 8975   7.551   0.288   3.634
   57GLOH   H07 8976   7.425   0.405   3.670
   57GLOH    O3 8977   7.589   0.410   3.799
   57GLOH   H01 8978   7.681   0.443   3.782
   58GLOH   H03 8979   7.849   8.326   3.930
   58GLOH    O1 8980   7.932   8.371   3.963
   58GLOH    C1 8981   8.040   8.328   3.878
   58GLOH   H02 8982   8.029   8.371   3.778
   58GLOH   H08 8983   8.039   8.219   3.866
   58GLOH    C2 8984   8.179   8.368   3.932
   58GLOH   H04 8985   8.193   8.319   4.030
   58GLOH    O2 8986   8.282   8.324   3.842
   58GLOH   H05 8987   8.338   8.258   3.885
   58GLOH    C3 8988   8.187   8.520   3.953
   58GLOH   H06 8989   8.168   8.570   3.857
   58GLOH   H07 8990   8.289   8.546   3.982
   58GLOH    O3 8991   8.093   8.565   0.011
   58GLOH   H01 8992   8.009   8.517   4.032
   59GLOH   H03 8993   5.059   9.909   2.775
   59GLOH    O1 8994   5.019   9.862   2.697
   59GLOH    C1 8995   5.127   9.827   2.609
   59GLOH   H02 8996   5.131   9.718   2.597
   59GLOH   H08 8997   5.223   9.856   2.652
   59GLOH    C2 8998   5.116   9.890   2.470
   59GLOH   H04 8999   5.100   9.998   2.482
   59GLOH    O2 9000   5.240   9.867   2.400
   59GLOH   H05 9001   5.221   9.813   2.317
   59GLOH    C3 9002   4.996   9.832   2.391
   59GLOH   H06 9003   5.001   9.723   2.399
   59GLOH   H07 9004   5.009   9.857   2.286
   59GLOH    O3 9005   4.867   9.878   2.436
   59GLOH   H01 9006   4.862   9.974   2.411
   60GLOH   H03 9007   8.228   7.400   1.542
   60GLOH    O1 9008   8.211   7.343   1.621
   60GLOH    C1 9009   8.157   7.428   1.724
   60GLOH   H02 9010   8.235   7.458   1.793
   60GLOH   H08 9011   8.082   7.374   1.783
   60GLOH    C2 9012   8.090   7.555   1.667
   60GLOH   H04 9013   8.003   7.525   1.607
   60GLOH    O2 9014   8.045   7.643   1.773
   60GLOH   H05 9015   7.973   7.594   1.824
   60GLOH    C3 9016   8.189   7.628   1.575
   60GLOH   H06 9017   8.271   7.667   1.636
   60GLOH   H07 9018   8.138   7.714   1.531
   60GLOH    O3 9019   8.240   7.544   1.470
   60GLOH   H01 9020   8.267   7.604   1.396
   61GLOH   H03 9021   5.108   3.028   0.412
   61GLOH    O1 9022   5.022   3.044   0.458
   61GLOH    C1 9023   5.046   3.070   0.598
   61GLOH   H02 9024   4.956   3.049   0.655
   61GLOH   H08 9025   5.068   3.175   0.613
   61GLOH    C2 9026   5.161   2.987   0.661
   61GLOH   H04 9027   5.251   3.003   0.601
   61GLOH    O2 9028   5.186   3.033   0.796
   61GLOH   H05 9029   5.120   2.990   0.859
   61GLOH    C3 9030   5.130   2.836   0.661
   61GLOH   H06 9031   5.032   2.820   0.707
   61GLOH   H07 9032   5.203   2.786   0.725
   61GLOH    O3 9033   5.132   2.779   0.529
   61GLOH   H01 9034   5.038   2.761   0.500
   62GLOH   H03 9035   4.633   1.207   3.135
   62GLOH    O1 9036   4.547   1.250   3.110
   62GLOH    C1 9037   4.541   1.253   2.966
   62GLOH   H02 9038   4.526   1.152   2.927
   62GLOH   H08 9039   4.634   1.290   2.924
   62GLOH    C2 9040   4.426   1.341   2.914
   62GLOH   H04 9041   4.447   1.445   2.941
   62GLOH    O2 9042   4.413   1.332   2.770
   62GLOH   H05 9043   4.349   1.405   2.741
   62GLOH    C3 9044   4.294   1.299   2.982
   62GLOH   H06 9045   4.279   1.193   2.963
   62GLOH   H07 9046   4.212   1.353   2.936
   62GLOH    O3 9047   4.297   1.323   3.123
   62GLOH   H01 9048   4.390   1.302   3.151
   63GLOH   H03 9049   7.316   6.378   0.075
   63GLOH    O1 9050   7.324   6.475   0.091
   63GLOH    C1 9051   7.409   6.501   0.204
   63GLOH   H02 9052   7.404   6.419   0.276
   63GLOH   H08 9053   7.376   6.590   0.256
   63GLOH    C2 9054   7.556   6.521   0.163
   63GLOH   H04 9055   7.614   6.541   0.255
   63GLOH    O2 9056   7.610   6.403   0.099
   63GLOH   H05 9057   7.540   6.361   0.046
   63GLOH    C3 9058   7.569   6.645   0.073
   63GLOH   H06 9059   7.529   6.731   0.126
   63GLOH   H07 9060   7.508   6.631   4.025
   63GLOH    O3 9061   7.706   6.670   0.036
   63GLOH   H01 9062   7.738   6.592   4.028
   64GLOH   H03 9063   9.006   9.127   3.671
   64GLOH    O1 9064   9.091   9.086   3.694
   64GLOH    C1 9065   9.175   9.180   3.764
   64GLOH   H02 9066   9.128   9.211   3.858
   64GLOH   H08 9067   9.189   9.270   3.704
   64GLOH    C2 9068   9.313   9.121   3.797
   64GLOH   H04 9069   9.357   9.086   3.703
   64GLOH    O2 9070   9.400   9.223   3.852
   64GLOH   H05 9071   9.391   9.227   3.952
   64GLOH    C3 9072   9.300   9.000   3.891
   64GLOH   H06 9073   9.399   8.957   3.905
   64GLOH   H07 9074   9.239   8.925   3.840
   64GLOH    O3 9075   9.242   9.032   4.019
   64GLOH   H01 9076   9.274   8.964   0.044
   65GLOH   H03 9077   4.591   7.385   3.939
   65GLOH    O1 9078   4.612   7.389   4.034
   65GLOH    C1 9079   4.505   7.330   0.069
   65GLOH   H02 9080   4.505   7.221   0.057
   65GLOH   H08 9081   4.408   7.365   0.033
   65GLOH    C2 9082   4.513   7.361   0.220
   65GLOH   H04 9083   4.501   7.469   0.234
   65GLOH    O2 9084   4.408   7.291   0.290
   65GLOH   H05 9085   4.374   7.347   0.366
   65GLOH    C3 9086   4.651   7.319   0.276
   65GLOH   H06 9087   4.661   7.211   0.268
   65GLOH   H07 9088   4.654   7.345   0.382
   65GLOH    O3 9089   4.757   7.385   0.204
   65GLOH   H01 9090   4.723   7.397   0.112
   66GLOH   H03 9091   6.208   7.294   3.380
   66GLOH    O1 9092   6.266   7.333   3.311
   66GLOH    C1 9093   6.293   7.471   3.346
   66GLOH   H02 9094   6.326   7.479   3.449
   66GLOH   H08 9095   6.202   7.530   3.337
   66GLOH    C2 9096   6.402   7.536   3.257
   66GLOH   H04 9097   6.365   7.537   3.154
   66GLOH    O2 9098   6.425   7.671   3.300
   66GLOH   H05 9099   6.384   7.735   3.235
   66GLOH    C3 9100   6.532   7.454   3.262
   66GLOH   H06 9101   6.570   7.453   3.364
   66GLOH   H07 9102   6.607   7.504   3.201
   66GLOH    O3 9103   6.510   7.319   3.215
   66GLOH   H01 9104   6.426   7.290   3.255
   67GLOH   H03 9105   3.260   7.074   0.276
   67GLOH    O1 9106   3.277   7.011   0.201
   67GLOH    C1 9107   3.374   6.912   0.241
   67GLOH   H02 9108   3.367   6.892   0.348
   67GLOH   H08 9109   3.475   6.950   0.223
   67GLOH    C2 9110   3.358   6.779   0.164
   67GLOH   H04 9111   3.452   6.723   0.174
   67GLOH    O2 9112   3.250   6.699   0.217
   67GLOH   H05 9113   3.198   6.752   0.285
   67GLOH    C3 9114   3.332   6.806   0.015
   67GLOH   H06 9115   3.233   6.852   0.004
   67GLOH   H07 9116   3.327   6.710   4.004
   67GLOH    O3 9117   3.432   6.889   3.993
   67GLOH   H01 9118   3.413   6.894   3.898
   68GLOH   H03 9119   8.591   0.295   0.066
   68GLOH    O1 9120   8.579   0.394   0.072
   68GLOH    C1 9121   8.438   0.420   0.060
   68GLOH   H02 9122   8.380   0.330   0.081
   68GLOH   H08 9123   8.415   0.448   3.997
   68GLOH    C2 9124   8.385   0.532   0.152
   68GLOH   H04 9125   8.279   0.546   0.129
   68GLOH    O2 9126   8.397   0.498   0.292
   68GLOH   H05 9127   8.353   0.569   0.346
   68GLOH    C3 9128   8.458   0.664   0.122
   68GLOH   H06 9129   8.565   0.646   0.122
   68GLOH   H07 9130   8.439   0.733   0.204
   68GLOH    O3 9131   8.417   0.722   4.038
   68GLOH   H01 9132   8.433   0.820   0.004
   69GLOH   H03 9133   2.063   0.110   0.265
   69GLOH    O1 9134   1.972   0.094   0.230
   69GLOH    C1 9135   1.906   9.997   0.314
   69GLOH   H02 9136   1.800   9.992   0.289
   69GLOH   H08 9137   1.912   0.028   0.418
   69GLOH    C2 9138   1.965   9.856   0.302
   69GLOH   H04 9139   2.072   9.861   0.324
   69GLOH    O2 9140   1.899   9.771   0.398
   69GLOH   H05 9141   1.812   9.738   0.361
   69GLOH    C3 9142   1.948   9.802   0.158
   69GLOH   H06 9143   1.987   9.876   0.089
   69GLOH   H07 9144   1.841   9.794   0.137
   69GLOH    O3 9145   2.013   9.675   0.136
   69GLOH   H01 9146   1.943   9.604   0.133
   70GLOH   H03 9147   4.217   3.224   3.401
   70GLOH    O1 9148   4.204   3.160   3.328
   70GLOH    C1 9149   4.285   3.197   3.215
   70GLOH   H02 9150   4.389   3.213   3.246
   70GLOH   H08 9151   4.250   3.291   3.174
   70GLOH    C2 9152   4.286   3.092   3.101
   70GLOH   H04 9153   4.349   3.133   3.021
   70GLOH    O2 9154   4.343   2.967   3.145
   70GLOH   H05 9155   4.361   2.909   3.064
   70GLOH    C3 9156   4.144   3.072   3.044
   70GLOH   H06 9157   4.076   3.053   3.127
   70GLOH   H07 9158   4.145   2.983   2.982
   70GLOH    O3 9159   4.098   3.185   2.967
   70GLOH   H01 9160   4.067   3.149   2.879
   71GLOH   H03 9161   9.855   5.015   0.098
   71GLOH    O1 9162   9.943   5.057   0.113
   71GLOH    C1 9163   0.053   4.971   0.077
   71GLOH   H02 9164   0.128   4.974   0.155
   71GLOH   H08 9165   0.101   5.009   4.027
   71GLOH    C2 9166   0.017   4.823   0.052
   71GLOH   H04 9167   9.932   4.818   4.023
   71GLOH    O2 9168   0.131   4.755   4.035
   71GLOH   H05 9169   0.100   4.673   3.991
   71GLOH    C3 9170   9.978   4.750   0.182
   71GLOH   H06 9171   0.064   4.752   0.250
   71GLOH   H07 9172   9.960   4.646   0.157
   71GLOH    O3 9173   9.862   4.804   0.247
   71GLOH   H01 9174   9.841   4.742   0.322
   72GLOH   H03 9175   2.284   5.864   3.208
   72GLOH    O1 9176   2.217   5.848   3.277
   72GLOH    C1 9177   2.094   5.915   3.241
   72GLOH   H02 9178   2.056   5.876   3.147
   72GLOH   H08 9179   2.112   6.022   3.228
   72GLOH    C2 9180   1.985   5.897   3.348
   72GLOH   H04 9181   2.020   5.945   3.440
   72GLOH    O2 9182   1.860   5.956   3.307
   72GLOH   H05 9183   1.793   5.911   3.363
   72GLOH    C3 9184   1.963   5.747   3.378
   72GLOH   H06 9185   2.053   5.707   3.424
   72GLOH   H07 9186   1.948   5.695   3.284
   72GLOH    O3 9187   1.849   5.727   3.465
   72GLOH   H01 9188   1.848   5.635   3.497
   73GLOH   H03 9189   0.030   0.239   1.620
   73GLOH    O1 9190   0.061   0.174   1.688
   73GLOH    C1 9191   0.008   0.044   1.652
   73GLOH   H02 9192   9.917   0.055   1.593
   73GLOH   H08 9193   9.980   9.990   1.743
   73GLOH    C2 9194   0.107   9.956   1.574
   73GLOH   H04 9195   0.190   9.932   1.641
   73GLOH    O2 9196   0.041   9.834   1.535
   73GLOH   H05 9197   9.994   9.846   1.447
   73GLOH    C3 9198   0.165   0.031   1.452
   73GLOH   H06 9199   0.214   0.121   1.487
   73GLOH   H07 9200   0.082   0.063   1.389
   73GLOH    O3 9201   0.258   9.951   1.376
   73GLOH   H01 9202   0.271   9.865   1.425
   74GLOH   H03 9203   8.006   4.067   1.326
   74GLOH    O1 9204   8.046   4.085   1.237
   74GLOH    C1 9205   7.945   4.135   1.146
   74GLOH   H02 9206   7.878   4.203   1.197
   74GLOH   H08 9207   7.885   4.053   1.109
   74GLOH    C2 9208   8.004   4.209   1.025
   74GLOH   H04 9209   8.075   4.141   0.975
   74GLOH    O2 9210   7.898   4.241   0.932
   74GLOH   H05 9211   7.919   4.327   0.886
   74GLOH    C3 9212   8.082   4.334   1.068
   74GLOH   H06 9213   8.127   4.379   0.979
   74GLOH   H07 9214   8.164   4.303   1.132
   74GLOH    O3 9215   8.001   4.432   1.136
   74GLOH   H01 9216   8.063   4.501   1.172
   75GLOH   H03 9217   3.070   7.829   0.027
   75GLOH    O1 9218   3.161   7.827   4.028
   75GLOH    C1 9219   3.173   7.709   3.946
   75GLOH   H02 9220   3.134   7.728   3.846
   75GLOH   H08 9221   3.114   7.628   3.988
   75GLOH    C2 9222   3.319   7.663   3.934
   75GLOH   H04 9223   3.360   7.651   4.035
   75GLOH    O2 9224   3.327   7.536   3.866
   75GLOH   H05 9225   3.413   7.536   3.818
   75GLOH    C3 9226   3.404   7.768   3.862
   75GLOH   H06 9227   3.397   7.863   3.916
   75GLOH   H07 9228   3.362   7.785   3.762
   75GLOH    O3 9229   3.541   7.727   3.852
   75GLOH   H01 9230   3.580   7.720   3.941
   76GLOH   H03 9231   1.481   8.082   2.330
   76GLOH    O1 9232   1.454   8.050   2.239
   76GLOH    C1 9233   1.391   8.157   2.166
   76GLOH   H02 9234   1.329   8.115   2.086
   76GLOH   H08 9235   1.467   8.218   2.117
   76GLOH    C2 9236   1.303   8.249   2.252
   76GLOH   H04 9237   1.370   8.299   2.324
   76GLOH    O2 9238   1.240   8.351   2.172
   76GLOH   H05 9239   1.309   8.419   2.148
   76GLOH    C3 9240   1.203   8.165   2.335
   76GLOH   H06 9241   1.149   8.231   2.402
   76GLOH   H07 9242   1.260   8.097   2.398
   76GLOH    O3 9243   1.110   8.090   2.255
   76GLOH   H01 9244   1.104   7.999   2.296
   77GLOH   H03 9245   8.237   6.124   0.954
   77GLOH    O1 9246   8.184   6.126   1.038
   77GLOH    C1 9247   8.128   6.260   1.047
   77GLOH   H02 9248   8.032   6.264   0.995
   77GLOH   H08 9249   8.194   6.332   0.997
   77GLOH    C2 9250   8.108   6.306   1.192
   77GLOH   H04 9251   8.207   6.312   1.240
   77GLOH    O2 9252   8.046   6.436   1.198
   77GLOH   H05 9253   8.109   6.503   1.155
   77GLOH    C3 9254   8.024   6.204   1.269
   77GLOH   H06 9255   7.927   6.192   1.219
   77GLOH   H07 9256   8.004   6.241   1.369
   77GLOH    O3 9257   8.094   6.079   1.274
   77GLOH   H01 9258   8.140   6.073   1.186
   78GLOH   H03 9259   3.380   8.526   2.979
   78GLOH    O1 9260   3.360   8.460   3.050
   78GLOH    C1 9261   3.484   8.401   3.091
   78GLOH   H02 9262   3.476   8.365   3.194
   78GLOH   H08 9263   3.564   8.475   3.091
   78GLOH    C2 9264   3.528   8.283   3.002
   78GLOH   H04 9265   3.635   8.264   3.020
   78GLOH    O2 9266   3.453   8.164   3.034
   78GLOH   H05 9267   3.515   8.092   3.064
   78GLOH    C3 9268   3.510   8.319   2.853
   78GLOH   H06 9269   3.403   8.334   2.834
   78GLOH   H07 9270   3.539   8.232   2.794
   78GLOH    O3 9271   3.585   8.435   2.813
   78GLOH   H01 9272   3.532   8.515   2.838
   79GLOH   H03 9273   4.844   0.620   3.360
   79GLOH    O1 9274   4.926   0.650   3.315
   79GLOH    C1 9275   4.945   0.574   3.194
   79GLOH   H02 9276   4.856   0.578   3.132
   79GLOH   H08 9277   4.964   0.469   3.217
   79GLOH    C2 9278   5.064   0.627   3.112
   79GLOH   H04 9279   5.154   0.624   3.175
   79GLOH    O2 9280   5.087   0.543   2.996
   79GLOH   H05 9281   4.997   0.529   2.952
   79GLOH    C3 9282   5.041   0.774   3.071
   79GLOH   H06 9283   5.133   0.812   3.026
   79GLOH   H07 9284   5.024   0.833   3.161
   79GLOH    O3 9285   4.932   0.794   2.978
   79GLOH   H01 9286   4.845   0.772   3.021
   80GLOH   H03 9287   5.135   9.627   2.213
   80GLOH    O1 9288   5.198   9.705   2.211
   80GLOH    C1 9289   5.335   9.657   2.210
   80GLOH   H02 9290   5.402   9.741   2.228
   80GLOH   H08 9291   5.359   9.618   2.111
   80GLOH    C2 9292   5.365   9.548   2.314
   80GLOH   H04 9293   5.333   9.585   2.413
   80GLOH    O2 9294   5.291   9.429   2.282
   80GLOH   H05 9295   5.310   9.354   2.344
   80GLOH    C3 9296   5.516   9.519   2.320
   80GLOH   H06 9297   5.548   9.483   2.222
   80GLOH   H07 9298   5.533   9.438   2.391
   80GLOH    O3 9299   5.593   9.635   2.357
   80GLOH   H01 9300   5.689   9.612   2.348
   81GLOH   H03 9301   3.964   1.668   3.850
   81GLOH    O1 9302   4.017   1.631   3.775
   81GLOH    C1 9303   4.103   1.531   3.833
   81GLOH   H02 9304   4.043   1.456   3.885
   81GLOH   H08 9305   4.168   1.577   3.907
   81GLOH    C2 9306   4.193   1.458   3.731
   81GLOH   H04 9307   4.269   1.529   3.696
   81GLOH    O2 9308   4.259   1.347   3.794
   81GLOH   H05 9309   4.199   1.305   3.859
   81GLOH    C3 9310   4.113   1.412   3.608
   81GLOH   H06 9311   4.038   1.339   3.639
   81GLOH   H07 9312   4.181   1.361   3.539
   81GLOH    O3 9313   4.050   1.523   3.542
   81GLOH   H01 9314   4.023   1.585   3.614
   82GLOH   H03 9315   8.645   4.024   2.601
   82GLOH    O1 9316   8.592   4.065   2.674
   82GLOH    C1 9317   8.551   4.197   2.632
   82GLOH   H02 9318   8.608   4.229   2.545
   82GLOH   H08 9319   8.572   4.270   2.711
   82GLOH    C2 9320   8.400   4.207   2.599
   82GLOH   H04 9321   8.344   4.193   2.693
   82GLOH    O2 9322   8.369   4.338   2.546
   82GLOH   H05 9323   8.424   4.353   2.464
   82GLOH    C3 9324   8.358   4.095   2.502
   82GLOH   H06 9325   8.415   4.107   2.410
   82GLOH   H07 9326   8.254   4.110   2.477
   82GLOH    O3 9327   8.380   3.965   2.558
   82GLOH   H01 9328   8.455   3.974   2.621
   83GLOH   H03 9329   2.478   1.933   3.825
   83GLOH    O1 9330   2.552   1.949   3.764
   83GLOH    C1 9331   2.668   1.989   3.839
   83GLOH   H02 9332   2.663   2.095   3.863
   83GLOH   H08 9333   2.758   1.974   3.779
   83GLOH    C2 9334   2.685   1.910   3.971
   83GLOH   H04 9335   2.769   1.956   4.025
   83GLOH    O2 9336   2.567   1.921   0.013
   83GLOH   H05 9337   2.563   2.013   0.049
   83GLOH    C3 9338   2.723   1.764   3.942
   83GLOH   H06 9339   2.652   1.723   3.870
   83GLOH   H07 9340   2.713   1.706   4.034
   83GLOH    O3 9341   2.858   1.754   3.891
   83GLOH   H01 9342   2.918   1.727   3.963
   84GLOH   H03 9343   8.084   2.431   2.639
   84GLOH    O1 9344   8.143   2.498   2.597
   84GLOH    C1 9345   8.099   2.523   2.462
   84GLOH   H02 9346   7.993   2.500   2.450
   84GLOH   H08 9347   8.153   2.460   2.391
   84GLOH    C2 9348   8.122   2.671   2.423
   84GLOH   H04 9349   8.230   2.692   2.432
   84GLOH    O2 9350   8.081   2.697   2.288
   84GLOH   H05 9351   8.158   2.739   2.240
   84GLOH    C3 9352   8.046   2.761   2.522
   84GLOH   H06 9353   7.940   2.736   2.517
   84GLOH   H07 9354   8.056   2.865   2.490
   84GLOH    O3 9355   8.096   2.742   2.655
   84GLOH   H01 9356   8.120   2.645   2.658
   85GLOH   H03 9357   2.163   0.047   2.304
   85GLOH    O1 9358   2.088   9.983   2.294
   85GLOH    C1 9359   2.115   9.860   2.365
   85GLOH   H02 9360   2.031   9.836   2.431
   85GLOH   H08 9361   2.203   9.872   2.430
   85GLOH    C2 9362   2.140   9.740   2.272
   85GLOH   H04 9363   2.234   9.758   2.217
   85GLOH    O2 9364   2.154   9.620   2.351
   85GLOH   H05 9365   2.239   9.573   2.330
   85GLOH    C3 9366   2.025   9.726   2.169
   85GLOH   H06 9367   2.009   9.823   2.122
   85GLOH   H07 9368   1.934   9.701   2.223
   85GLOH    O3 9369   2.052   9.627   2.068
   85GLOH   H01 9370   2.113   9.669   2.001
   86GLOH   H03 9371   8.750   5.162   1.784
   86GLOH    O1 9372   8.841   5.156   1.747
   86GLOH    C1 9373   8.835   5.078   1.625
   86GLOH   H02 9374   8.863   4.975   1.645
   86GLOH   H08 9375   8.906   5.117   1.552
   86GLOH    C2 9376   8.696   5.080   1.559
   86GLOH   H04 9377   8.672   5.183   1.529
   86GLOH    O2 9378   8.694   4.994   1.443
   86GLOH   H05 9379   8.705   5.051   1.361
   86GLOH    C3 9380   8.590   5.032   1.661
   86GLOH   H06 9381   8.615   4.930   1.689
   86GLOH   H07 9382   8.493   5.029   1.611
   86GLOH    O3 9383   8.583   5.114   1.779
   86GLOH   H01 9384   8.544   5.056   1.850
   87GLOH   H03 9385   6.297   9.840   1.747
   87GLOH    O1 9386   6.274   9.926   1.790
   87GLOH    C1 9387   6.131   9.937   1.807
   87GLOH   H02 9388   6.079   9.892   1.723
   87GLOH   H08 9389   6.102   0.042   1.809
   87GLOH    C2 9390   6.076   9.872   1.936
   87GLOH   H04 9391   5.968   9.893   1.942
   87GLOH    O2 9392   6.096   9.729   1.935
   87GLOH   H05 9393   6.193   9.710   1.941
   87GLOH    C3 9394   6.145   9.930   2.061
   87GLOH   H06 9395   6.249   9.901   2.059
   87GLOH   H07 9396   6.100   9.884   2.149
   87GLOH    O3 9397   6.134   0.073   2.071
   87GLOH   H01 9398   6.218   0.105   2.112
   88GLOH   H03 9399   4.466   3.167   0.629
   88GLOH    O1 9400   4.372   3.158   0.658
   88GLOH    C1 9401   4.315   3.288   0.683
   88GLOH   H02 9402   4.390   3.354   0.727
   88GLOH   H08 9403   4.234   3.280   0.756
   88GLOH    C2 9404   4.259   3.354   0.556
   88GLOH   H04 9405   4.191   3.281   0.508
   88GLOH    O2 9406   4.182   3.471   0.591
   88GLOH   H05 9407   4.210   3.552   0.540
   88GLOH    C3 9408   4.372   3.385   0.456
   88GLOH   H06 9409   4.327   3.429   0.367
   88GLOH   H07 9410   4.416   3.290   0.424
   88GLOH    O3 9411   4.473   3.472   0.510
   88GLOH   H01 9412   4.562   3.437   0.481
   89GLOH   H03 9413   4.271   9.345   2.920
   89GLOH    O1 9414   4.197   9.342   2.853
   89GLOH    C1 9415   4.074   9.378   2.919
   89GLOH   H02 9416   4.033   9.469   2.875
   89GLOH   H08 9417   4.091   9.400   3.025
   89GLOH    C2 9418   3.968   9.267   2.910
   89GLOH   H04 9419   3.978   9.218   2.811
   89GLOH    O2 9420   3.987   9.166   3.012
   89GLOH   H05 9421   4.079   9.129   3.003
   89GLOH    C3 9422   3.827   9.327   2.917
   89GLOH   H06 9423   3.818   9.382   3.010
   89GLOH   H07 9424   3.754   9.246   2.919
   89GLOH    O3 9425   3.801   9.414   2.805
   89GLOH   H01 9426   3.779   9.504   2.841
   90GLOH   H03 9427   4.764   2.865   3.516
   90GLOH    O1 9428   4.805   2.934   3.459
   90GLOH    C1 9429   4.708   3.040   3.451
   90GLOH   H02 9430   4.746   3.120   3.386
   90GLOH   H08 9431   4.693   3.085   3.549
   90GLOH    C2 9432   4.571   2.995   3.397
   90GLOH   H04 9433   4.493   3.058   3.442
   90GLOH    O2 9434   4.565   3.006   3.254
   90GLOH   H05 9435   4.471   2.989   3.222
   90GLOH    C3 9436   4.543   2.848   3.437
   90GLOH   H06 9437   4.600   2.783   3.371
   90GLOH   H07 9438   4.437   2.827   3.420
   90GLOH    O3 9439   4.578   2.821   3.574
   90GLOH   H01 9440   4.522   2.748   3.608
   91GLOH   H03 9441   7.411   9.891   0.102
   91GLOH    O1 9442   7.482   9.941   0.053
   91GLOH    C1 9443   7.456   0.083   0.060
   91GLOH   H02 9444   7.462   0.118   0.163
   91GLOH   H08 9445   7.355   0.104   0.025
   91GLOH    C2 9446   7.553   0.166   4.015
   91GLOH   H04 9447   7.540   0.136   3.910
   91GLOH    O2 9448   7.526   0.307   4.027
   91GLOH   H05 9449   7.545   0.350   3.938
   91GLOH    C3 9450   7.699   0.135   0.015
   91GLOH   H06 9451   7.714   0.168   0.118
   91GLOH   H07 9452   7.766   0.194   3.993
   91GLOH    O3 9453   7.727   9.995   0.002
   91GLOH   H01 9454   7.641   9.949   0.019
   92GLOH   H03 9455   4.573   1.447   0.753
   92GLOH    O1 9456   4.618   1.533   0.770
   92GLOH    C1 9457   4.555   1.634   0.688
   92GLOH   H02 9458   4.448   1.639   0.711
   92GLOH   H08 9459   4.563   1.608   0.583
   92GLOH    C2 9460   4.616   1.774   0.709
   92GLOH   H04 9461   4.720   1.771   0.675
   92GLOH    O2 9462   4.544   1.872   0.632
   92GLOH   H05 9463   4.593   1.958   0.635
   92GLOH    C3 9464   4.615   1.812   0.858
   92GLOH   H06 9465   4.512   1.824   0.891
   92GLOH   H07 9466   4.664   1.908   0.870
   92GLOH    O3 9467   4.682   1.711   0.936
   92GLOH   H01 9468   4.668   1.627   0.885
   93GLOH   H03 9469   4.990   1.044   2.428
   93GLOH    O1 9470   5.052   1.084   2.495
   93GLOH    C1 9471   4.976   1.129   2.608
   93GLOH   H02 9472   4.881   1.076   2.615
   93GLOH   H08 9473   4.952   1.235   2.597
   93GLOH    C2 9474   5.051   1.111   2.741
   93GLOH   H04 9475   5.140   1.176   2.738
   93GLOH    O2 9476   4.969   1.150   2.853
   93GLOH   H05 9477   4.884   1.096   2.851
   93GLOH    C3 9478   5.102   0.966   2.757
   93GLOH   H06 9479   5.152   0.958   2.853
   93GLOH   H07 9480   5.177   0.947   2.681
   93GLOH    O3 9481   4.997   0.868   2.748
   93GLOH   H01 9482   4.975   0.836   2.840
   94GLOH   H03 9483   2.690   3.082   0.166
   94GLOH    O1 9484   2.642   3.022   0.103
   94GLOH    C1 9485   2.538   3.094   0.035
   94GLOH   H02 9486   2.504   3.037   3.989
   94GLOH   H08 9487   2.577   3.188   4.037
   94GLOH    C2 9488   2.414   3.127   0.122
   94GLOH   H04 9489   2.352   3.197   0.066
   94GLOH    O2 9490   2.336   3.009   0.153
   94GLOH   H05 9491   2.285   2.983   0.074
   94GLOH    C3 9492   2.457   3.196   0.253
   94GLOH   H06 9493   2.503   3.121   0.318
   94GLOH   H07 9494   2.367   3.230   0.304
   94GLOH    O3 9495   2.547   3.306   0.230
   94GLOH   H01 9496   2.638   3.271   0.248
   95GLOH   H03 9497   4.842   8.688   0.127
   95GLOH    O1 9498   4.758   8.719   0.170
   95GLOH    C1 9499   4.793   8.787   0.292
   95GLOH   H02 9500   4.873   8.859   0.274
   95GLOH   H08 9501   4.831   8.715   0.365
   95GLOH    C2 9502   4.673   8.861   0.353
   95GLOH   H04 9503   4.589   8.790   0.358
   95GLOH    O2 9504   4.704   8.905   0.487
   95GLOH   H05 9505   4.696   8.825   0.547
   95GLOH    C3 9506   4.631   8.979   0.264
   95GLOH   H06 9507   4.541   9.024   0.307
   95GLOH   H07 9508   4.602   8.939   0.166
   95GLOH    O3 9509   4.733   9.080   0.248
   95GLOH   H01 9510   4.758   9.111   0.339
   96GLOH   H03 9511   3.659   6.501   2.690
   96GLOH    O1 9512   3.751   6.540   2.682
   96GLOH    C1 9513   3.735   6.673   2.628
   96GLOH   H02 9514   3.650   6.677   2.560
   96GLOH   H08 9515   3.823   6.698   2.568
   96GLOH    C2 9516   3.717   6.782   2.735
   96GLOH   H04 9517   3.811   6.790   2.792
   96GLOH    O2 9518   3.691   6.908   2.670
   96GLOH   H05 9519   3.727   6.982   2.727
   96GLOH    C3 9520   3.604   6.746   2.834
   96GLOH   H06 9521   3.629   6.651   2.882
   96GLOH   H07 9522   3.513   6.730   2.778
   96GLOH    O3 9523   3.584   6.848   2.935
   96GLOH   H01 9524   3.670   6.863   2.981
   97GLOH   H03 9525   4.814   2.206   2.030
   97GLOH    O1 9526   4.805   2.285   2.088
   97GLOH    C1 9527   4.898   2.265   2.197
   97GLOH   H02 9528   4.890   2.162   2.234
   97GLOH   H08 9529   4.872   2.330   2.281
   97GLOH    C2 9530   5.045   2.289   2.158
   97GLOH   H04 9531   5.107   2.253   2.241
   97GLOH    O2 9532   5.083   2.215   2.040
   97GLOH   H05 9533   5.092   2.277   1.962
   97GLOH    C3 9534   5.075   2.439   2.142
   97GLOH   H06 9535   5.016   2.479   2.060
   97GLOH   H07 9536   5.180   2.451   2.115
   97GLOH    O3 9537   5.048   2.512   2.263
   97GLOH   H01 9538   5.075   2.606   2.249
   98GLOH   H03 9539   6.916   8.145   2.253
   98GLOH    O1 9540   6.828   8.113   2.284
   98GLOH    C1 9541   6.760   8.046   2.175
   98GLOH   H02 9542   6.747   8.116   2.092
   98GLOH   H08 9543   6.660   8.016   2.206
   98GLOH    C2 9544   6.832   7.921   2.120
   98GLOH   H04 9545   6.773   7.883   2.036
   98GLOH    O2 9546   6.964   7.953   2.070
   98GLOH   H05 9547   6.962   8.038   2.018
   98GLOH    C3 9548   6.839   7.810   2.226
   98GLOH   H06 9549   6.899   7.846   2.309
   98GLOH   H07 9550   6.893   7.725   2.183
   98GLOH    O3 9551   6.709   7.767   2.271
   98GLOH   H01 9552   6.690   7.815   2.356
   99GLOH   H03 9553   7.849   0.669   1.511
   99GLOH    O1 9554   7.799   0.583   1.511
   99GLOH    C1 9555   7.847   0.499   1.618
   99GLOH   H02 9556   7.829   0.547   1.714
   99GLOH   H08 9557   7.954   0.484   1.609
   99GLOH    C2 9558   7.778   0.361   1.618
   99GLOH   H04 9559   7.795   0.315   1.520
   99GLOH    O2 9560   7.835   0.277   1.721
   99GLOH   H05 9561   7.815   0.182   1.696
   99GLOH    C3 9562   7.625   0.378   1.637
   99GLOH   H06 9563   7.588   0.442   1.556
   99GLOH   H07 9564   7.608   0.432   1.730
   99GLOH    O3 9565   7.552   0.253   1.637
   99GLOH   H01 9566   7.561   0.209   1.548
  100GLOH   H03 9567   7.637   8.239   3.923
  100GLOH    O1 9568   7.725   8.250   3.883
  100GLOH    C1 9569   7.718   8.235   3.740
  100GLOH   H02 9570   7.818   8.230   3.697
  100GLOH   H08 9571   7.670   8.323   3.695
  100GLOH    C2 9572   7.640   8.110   3.694
  100GLOH   H04 9573   7.539   8.113   3.738
  100GLOH    O2 9574   7.628   8.111   3.550
  100GLOH   H05 9575   7.554   8.056   3.519
  100GLOH    C3 9576   7.711   7.982   3.740
  100GLOH   H06 9577   7.647   7.896   3.717
  100GLOH   H07 9578   7.721   7.984   3.849
  100GLOH    O3 9579   7.840   7.967   3.679
  100GLOH   H01 9580   7.831   7.993   3.585
  101GLOH   H03 9581   1.924   3.601   3.446
  101GLOH    O1 9582   1.921   3.622   3.542
  101GLOH    C1 9583   1.805   3.562   3.603
  101GLOH   H02 9584   1.820   3.555   3.710
  101GLOH   H08 9585   1.791   3.460   3.566
  101GLOH    C2 9586   1.677   3.642   3.575
  101GLOH   H04 9587   1.663   3.647   3.466
  101GLOH    O2 9588   1.562   3.578   3.634
  101GLOH   H05 9589   1.576   3.561   3.729
  101GLOH    C3 9590   1.691   3.787   3.628
  101GLOH   H06 9591   1.777   3.834   3.579
  101GLOH   H07 9592   1.713   3.783   3.734
  101GLOH    O3 9593   1.572   3.863   3.603
  101GLOH   H01 9594   1.498   3.799   3.601
  102GLOH   H03 9595   1.245   9.556   0.613
  102GLOH    O1 9596   1.302   9.493   0.561
  102GLOH    C1 9597   1.232   9.369   0.540
  102GLOH   H02 9598   1.172   9.343   0.627
  102GLOH   H08 9599   1.303   9.288   0.526
  102GLOH    C2 9600   1.139   9.372   0.417
  102GLOH   H04 9601   1.106   9.269   0.396
  102GLOH    O2 9602   1.021   9.454   0.437
  102GLOH   H05 9603   0.981   9.434   0.527
  102GLOH    C3 9604   1.216   9.423   0.293
  102GLOH   H06 9605   1.251   9.524   0.313
  102GLOH   H07 9606   1.146   9.429   0.210
  102GLOH    O3 9607   1.326   9.337   0.258
  102GLOH   H01 9608   1.397   9.343   0.327
  103GLOH   H03 9609   9.276   4.525   1.878
  103GLOH    O1 9610   9.260   4.455   1.946
  103GLOH    C1 9611   9.346   4.342   1.921
  103GLOH   H02 9612   9.367   4.332   1.814
  103GLOH   H08 9613   9.296   4.250   1.952
  103GLOH    C2 9614   9.481   4.350   1.996
  103GLOH   H04 9615   9.459   4.353   2.104
  103GLOH    O2 9616   9.558   4.232   1.966
  103GLOH   H05 9617   9.652   4.243   1.998
  103GLOH    C3 9618   9.557   4.479   1.958
  103GLOH   H06 9619   9.490   4.564   1.974
  103GLOH   H07 9620   9.579   4.476   1.851
  103GLOH    O3 9621   9.678   4.498   2.034
  103GLOH   H01 9622   9.734   4.416   2.024
  104GLOH   H03 9623   8.015   9.316   0.044
  104GLOH    O1 9624   8.023   9.267   3.999
  104GLOH    C1 9625   8.114   9.336   3.911
  104GLOH   H02 9626   8.210   9.352   3.961
  104GLOH   H08 9627   8.074   9.434   3.884
  104GLOH    C2 9628   8.139   9.256   3.781
  104GLOH   H04 9629   8.043   9.244   3.729
  104GLOH    O2 9630   8.231   9.327   3.695
  104GLOH   H05 9631   8.182   9.388   3.637
  104GLOH    C3 9632   8.194   9.116   3.815
  104GLOH   H06 9633   8.291   9.127   3.863
  104GLOH   H07 9634   8.210   9.062   3.722
  104GLOH    O3 9635   8.103   9.045   3.901
  104GLOH   H01 9636   8.058   9.115   3.954
  105GLOH   H03 9637   0.725   4.954   3.401
  105GLOH    O1 9638   0.751   4.939   3.308
  105GLOH    C1 9639   0.639   4.888   3.234
  105GLOH   H02 9640   0.584   4.815   3.293
  105GLOH   H08 9641   0.675   4.836   3.144
  105GLOH    C2 9642   0.543   5.000   3.190
  105GLOH   H04 9643   0.512   5.055   3.280
  105GLOH    O2 9644   0.610   5.092   3.101
  105GLOH   H05 9645   0.685   5.132   3.150
  105GLOH    C3 9646   0.417   4.941   3.125
  105GLOH   H06 9647   0.446   4.880   3.040
  105GLOH   H07 9648   0.355   5.022   3.087
  105GLOH    O3 9649   0.343   4.862   3.220
  105GLOH   H01 9650   0.255   4.839   3.181
  106GLOH   H03 9651   0.430   7.703   2.189
  106GLOH    O1 9652   0.420   7.773   2.119
  106GLOH    C1 9653   0.280   7.778   2.085
  106GLOH   H02 9654   0.220   7.799   2.174
  106GLOH   H08 9655   0.247   7.681   2.047
  106GLOH    C2 9656   0.247   7.884   1.978
  106GLOH   H04 9657   0.303   7.860   1.886
  106GLOH    O2 9658   0.105   7.880   1.951
  106GLOH   H05 9659   0.086   7.927   1.865
  106GLOH    C3 9660   0.288   8.024   2.027
  106GLOH   H06 9661   0.230   8.049   2.116
  106GLOH   H07 9662   0.262   8.097   1.950
  106GLOH    O3 9663   0.429   8.030   2.056
  106GLOH   H01 9664   0.454   7.941   2.089
  107GLOH   H03 9665   1.469   7.132   0.861
  107GLOH    O1 9666   1.434   7.133   0.954
  107GLOH    C1 9667   1.383   7.265   0.984
  107GLOH   H02 9668   1.307   7.259   1.062
  107GLOH   H08 9669   1.335   7.308   0.896
  107GLOH    C2 9670   1.493   7.361   1.032
  107GLOH   H04 9671   1.567   7.372   0.951
  107GLOH    O2 9672   1.437   7.491   1.062
  107GLOH   H05 9673   1.448   7.550   0.982
  107GLOH    C3 9674   1.566   7.304   1.155
  107GLOH   H06 9675   1.499   7.306   1.241
  107GLOH   H07 9676   1.651   7.369   1.179
  107GLOH    O3 9677   1.612   7.170   1.131
  107GLOH   H01 9678   1.548   7.132   1.066
  108GLOH   H03 9679   5.412   9.493   2.697
  108GLOH    O1 9680   5.334   9.435   2.720
  108GLOH    C1 9681   5.379   9.312   2.781
  108GLOH   H02 9682   5.452   9.263   2.718
  108GLOH   H08 9683   5.294   9.244   2.789
  108GLOH    C2 9684   5.439   9.329   2.923
  108GLOH   H04 9685   5.369   9.389   2.982
  108GLOH    O2 9686   5.454   9.199   2.985
  108GLOH   H05 9687   5.519   9.144   2.932
  108GLOH    C3 9688   5.575   9.402   2.920
  108GLOH   H06 9689   5.560   9.502   2.883
  108GLOH   H07 9690   5.641   9.351   2.849
  108GLOH    O3 9691   5.636   9.407   3.050
  108GLOH   H01 9692   5.596   9.335   3.103
  109GLOH   H03 9693   4.176   2.086   0.905
  109GLOH    O1 9694   4.137   2.016   0.964
  109GLOH    C1 9695   4.233   1.995   1.070
  109GLOH   H02 9696   4.242   2.086   1.130
  109GLOH   H08 9697   4.332   1.976   1.028
  109GLOH    C2 9698   4.200   1.879   1.166
  109GLOH   H04 9699   4.284   1.869   1.236
  109GLOH    O2 9700   4.079   1.902   1.242
  109GLOH   H05 9701   4.095   1.977   1.307
  109GLOH    C3 9702   4.189   1.747   1.087
  109GLOH   H06 9703   4.109   1.756   1.014
  109GLOH   H07 9704   4.159   1.668   1.157
  109GLOH    O3 9705   4.313   1.712   1.023
  109GLOH   H01 9706   4.292   1.646   0.952
  110GLOH   H03 9707   2.212   0.958   1.195
  110GLOH    O1 9708   2.267   1.003   1.265
  110GLOH    C1 9709   2.216   1.137   1.277
  110GLOH   H02 9710   2.115   1.135   1.320
  110GLOH   H08 9711   2.207   1.184   1.179
  110GLOH    C2 9712   2.304   1.228   1.365
  110GLOH   H04 9713   2.405   1.230   1.322
  110GLOH    O2 9714   2.249   1.362   1.365
  110GLOH   H05 9715   2.326   1.426   1.374
  110GLOH    C3 9716   2.311   1.175   1.509
  110GLOH   H06 9717   2.340   1.070   1.506
  110GLOH   H07 9718   2.212   1.178   1.552
  110GLOH    O3 9719   2.404   1.249   1.591
  110GLOH   H01 9720   2.373   1.342   1.600
  111GLOH   H03 9721   5.105   2.724   2.678
  111GLOH    O1 9722   5.067   2.633   2.669
  111GLOH    C1 9723   4.946   2.631   2.747
  111GLOH   H02 9724   4.954   2.699   2.832
  111GLOH   H08 9725   4.932   2.531   2.789
  111GLOH    C2 9726   4.819   2.666   2.667
  111GLOH   H04 9727   4.796   2.581   2.602
  111GLOH    O2 9728   4.709   2.684   2.759
  111GLOH   H05 9729   4.660   2.597   2.768
  111GLOH    C3 9730   4.837   2.789   2.575
  111GLOH   H06 9731   4.893   2.864   2.630
  111GLOH   H07 9732   4.739   2.832   2.553
  111GLOH    O3 9733   4.906   2.757   2.452
  111GLOH   H01 9734   4.845   2.704   2.395
  112GLOH   H03 9735   1.030   4.494   2.703
  112GLOH    O1 9736   1.000   4.510   2.610
  112GLOH    C1 9737   0.861   4.473   2.599
  112GLOH   H02 9738   0.842   4.380   2.653
  112GLOH   H08 9739   0.835   4.454   2.495
  112GLOH    C2 9740   0.764   4.579   2.654
  112GLOH   H04 9741   0.662   4.541   2.638
  112GLOH    O2 9742   0.781   4.600   2.796
  112GLOH   H05 9743   0.741   4.520   2.843
  112GLOH    C3 9744   0.775   4.711   2.575
  112GLOH   H06 9745   0.879   4.744   2.576
  112GLOH   H07 9746   0.717   4.788   2.625
  112GLOH    O3 9747   0.729   4.694   2.440
  112GLOH   H01 9748   0.629   4.698   2.440
  113GLOH   H03 9749   7.828   1.099   3.386
  113GLOH    O1 9750   7.775   1.109   3.304
  113GLOH    C1 9751   7.654   1.030   3.315
  113GLOH   H02 9752   7.580   1.084   3.374
  113GLOH   H08 9753   7.674   0.936   3.367
  113GLOH    C2 9754   7.593   0.998   3.178
  113GLOH   H04 9755   7.667   0.941   3.118
  113GLOH    O2 9756   7.475   0.918   3.195
  113GLOH   H05 9757   7.433   0.901   3.106
  113GLOH    C3 9758   7.560   1.128   3.103
  113GLOH   H06 9759   7.479   1.180   3.155
  113GLOH   H07 9760   7.524   1.104   3.003
  113GLOH    O3 9761   7.676   1.211   3.096
  113GLOH   H01 9762   7.731   1.186   3.175
  114GLOH   H03 9763   9.002   0.238   1.883
  114GLOH    O1 9764   8.906   0.223   1.864
  114GLOH    C1 9765   8.830   0.284   1.971
  114GLOH   H02 9766   8.864   0.386   1.988
  114GLOH   H08 9767   8.844   0.228   2.064
  114GLOH    C2 9768   8.680   0.287   1.937
  114GLOH   H04 9769   8.645   0.184   1.924
  114GLOH    O2 9770   8.606   0.348   2.046
  114GLOH   H05 9771   8.516   0.376   2.011
  114GLOH    C3 9772   8.657   0.364   1.805
  114GLOH   H06 9773   8.677   0.470   1.823
  114GLOH   H07 9774   8.553   0.355   1.777
  114GLOH    O3 9775   8.740   0.315   1.699
  114GLOH   H01 9776   8.808   0.257   1.742
  115GLOH   H03 9777   9.452   7.602   2.213
  115GLOH    O1 9778   9.481   7.550   2.293
  115GLOH    C1 9779   9.610   7.602   2.331
  115GLOH   H02 9780   9.640   7.564   2.428
  115GLOH   H08 9781   9.605   7.711   2.340
  115GLOH    C2 9782   9.719   7.565   2.229
  115GLOH   H04 9783   9.682   7.587   2.128
  115GLOH    O2 9784   9.838   7.643   2.254
  115GLOH   H05 9785   9.887   7.654   2.167
  115GLOH    C3 9786   9.748   7.414   2.239
  115GLOH   H06 9787   9.652   7.361   2.245
  115GLOH   H07 9788   9.800   7.395   2.333
  115GLOH    O3 9789   9.825   7.363   2.129
  115GLOH   H01 9790   9.916   7.403   2.130
  116GLOH   H03 9791   7.802   3.655   1.181
  116GLOH    O1 9792   7.824   3.658   1.278
  116GLOH    C1 9793   7.733   3.748   1.345
  116GLOH   H02 9794   7.706   3.707   1.442
  116GLOH   H08 9795   7.640   3.758   1.288
  116GLOH    C2 9796   7.794   3.888   1.365
  116GLOH   H04 9797   7.827   3.924   1.267
  116GLOH    O2 9798   7.696   3.978   1.420
  116GLOH   H05 9799   7.743   4.055   1.457
  116GLOH    C3 9800   7.917   3.881   1.458
  116GLOH   H06 9801   7.986   3.807   1.420
  116GLOH   H07 9802   7.884   3.847   1.556
  116GLOH    O3 9803   7.982   4.009   1.471
  116GLOH   H01 9804   8.038   4.006   1.553
  117GLOH   H03 9805   8.688   3.812   1.592
  117GLOH    O1 9806   8.683   3.745   1.518
  117GLOH    C1 9807   8.545   3.716   1.485
  117GLOH   H02 9808   8.508   3.640   1.554
  117GLOH   H08 9809   8.541   3.672   1.385
  117GLOH    C2 9810   8.448   3.836   1.488
  117GLOH   H04 9811   8.448   3.877   1.590
  117GLOH    O2 9812   8.486   3.940   1.395
  117GLOH   H05 9813   8.408   3.999   1.373
  117GLOH    C3 9814   8.305   3.787   1.459
  117GLOH   H06 9815   8.302   3.746   1.358
  117GLOH   H07 9816   8.238   3.873   1.459
  117GLOH    O3 9817   8.258   3.689   1.554
  117GLOH   H01 9818   8.244   3.601   1.509
  118GLOH   H03 9819   2.957   7.981   3.043
  118GLOH    O1 9820   2.936   8.059   3.100
  118GLOH    C1 9821   2.971   8.179   3.026
  118GLOH   H02 9822   2.891   8.253   3.035
  118GLOH   H08 9823   2.981   8.156   2.920
  118GLOH    C2 9824   3.102   8.243   3.075
  118GLOH   H04 9825   3.182   8.167   3.070
  118GLOH    O2 9826   3.137   8.356   2.993
  118GLOH   H05 9827   3.230   8.385   3.020
  118GLOH    C3 9828   3.087   8.287   3.222
  118GLOH   H06 9829   3.016   8.370   3.227
  118GLOH   H07 9830   3.183   8.325   3.257
  118GLOH    O3 9831   3.043   8.179   3.305
  118GLOH   H01 9832   2.996   8.115   3.246
  119GLOH   H03 9833   8.804   6.961   1.314
  119GLOH    O1 9834   8.868   6.906   1.262
  119GLOH    C1 9835   8.820   6.902   1.127
  119GLOH   H02 9836   8.901   6.877   1.059
  119GLOH   H08 9837   8.782   7.000   1.096
  119GLOH    C2 9838   8.706   6.799   1.109
  119GLOH   H04 9839   8.623   6.826   1.176
  119GLOH    O2 9840   8.660   6.800   0.973
  119GLOH   H05 9841   8.563   6.825   0.972
  119GLOH    C3 9842   8.754   6.657   1.147
  119GLOH   H06 9843   8.824   6.622   1.071
  119GLOH   H07 9844   8.668   6.591   1.143
  119GLOH    O3 9845   8.815   6.653   1.277
  119GLOH   H01 9846   8.857   6.742   1.288
  120GLOH   H03 9847   7.418   9.811   1.704
  120GLOH    O1 9848   7.489   9.760   1.655
  120GLOH    C1 9849   7.600   9.743   1.745
  120GLOH   H02 9850   7.666   9.664   1.708
  120GLOH   H08 9851   7.565   9.710   1.843
  120GLOH    C2 9852   7.684   9.871   1.764
  120GLOH   H04 9853   7.617   9.952   1.794
  120GLOH    O2 9854   7.783   9.850   1.868
  120GLOH   H05 9855   7.861   9.911   1.851
  120GLOH    C3 9856   7.750   9.908   1.630
  120GLOH   H06 9857   7.674   9.907   1.553
  120GLOH   H07 9858   7.822   9.830   1.604
  120GLOH    O3 9859   7.815   0.037   1.631
  120GLOH   H01 9860   7.839   0.057   1.536
  121ACOH    H4 9861   4.852   6.858   3.468
  121ACOH    O2 9862   4.845   6.770   3.429
  121ACOH    C2 9863   4.949   6.754   3.345
  121ACOH    O1 9864   5.024   6.843   3.309
  121ACOH    C1 9865   4.948   6.619   3.285
  121ACOH    H1 9866   4.849   6.597   3.245
  121ACOH    H2 9867   4.972   6.545   3.361
  121ACOH    H3 9868   5.020   6.612   3.204
  122ACOH    H4 9869   7.990   6.488   1.325
  122ACOH    O2 9870   7.951   6.519   1.411
  122ACOH    C2 9871   7.920   6.649   1.390
  122ACOH    O1 9872   7.963   6.721   1.301
  122ACOH    C1 9873   7.834   6.703   1.499
  122ACOH    H1 9874   7.813   6.626   1.572
  122ACOH    H2 9875   7.741   6.739   1.456
  122ACOH    H3 9876   7.885   6.785   1.548
  123ACOH    H4 9877   4.609   5.722   2.437
  123ACOH    O2 9878   4.589   5.800   2.496
  123ACOH    C2 9879   4.485   5.865   2.440
  123ACOH    O1 9880   4.418   5.829   2.345
  123ACOH    C1 9881   4.453   5.987   2.518
  123ACOH    H1 9882   4.367   6.039   2.475
  123ACOH    H2 9883   4.539   6.054   2.518
  123ACOH    H3 9884   4.430   5.960   2.620
  124ACOH    H4 9885   6.093   8.329   1.636
  124ACOH    O2 9886   6.051   8.397   1.578
  124ACOH    C2 9887   5.919   8.397   1.606
  124ACOH    O1 9888   5.861   8.320   1.680
  124ACOH    C1 9889   5.851   8.506   1.533
  124ACOH    H1 9890   5.857   8.487   1.426
  124ACOH    H2 9891   5.901   8.600   1.554
  124ACOH    H3 9892   5.747   8.514   1.563
  125ACOH    H4 9893   7.615   3.100   3.944
  125ACOH    O2 9894   7.653   3.163   4.007
  125ACOH    C2 9895   7.786   3.145   3.999
  125ACOH    O1 9896   7.841   3.049   3.947
  125ACOH    C1 9897   7.859   3.243   0.041
  125ACOH    H1 9898   7.796   3.327   0.068
  125ACOH    H2 9899   7.945   3.281   4.027
  125ACOH    H3 9900   7.895   3.195   0.132
  126ACOH    H4 9901   4.932   0.711   3.841
  126ACOH    O2 9902   4.978   0.699   3.926
  126ACOH    C2 9903   5.020   0.821   3.962
  126ACOH    O1 9904   4.997   0.926   3.904
  126ACOH    C1 9905   5.094   0.815   0.050
  126ACOH    H1 9906   5.033   0.764   0.124
  126ACOH    H2 9907   5.116   0.916   0.086
  126ACOH    H3 9908   5.187   0.761   0.036
  127ACOH    H4 9909   4.864   7.533   1.349
  127ACOH    O2 9910   4.879   7.497   1.441
  127ACOH    C2 9911   4.786   7.401   1.459
  127ACOH    O1 9912   4.674   7.402   1.412
  127ACOH    C1 9913   4.819   7.317   1.577
  127ACOH    H1 9914   4.924   7.330   1.605
  127ACOH    H2 9915   4.801   7.213   1.554
  127ACOH    H3 9916   4.757   7.347   1.661
  128ACOH    H4 9917   7.302   2.932   0.430
  128ACOH    O2 9918   7.278   2.844   0.389
  128ACOH    C2 9919   7.320   2.848   0.261
  128ACOH    O1 9920   7.377   2.941   0.208
  128ACOH    C1 9921   7.288   2.722   0.191
  128ACOH    H1 9922   7.320   2.726   0.087
  128ACOH    H2 9923   7.180   2.705   0.193
  128ACOH    H3 9924   7.338   2.639   0.239
  129ACOH    H4 9925   6.727   0.342   2.107
  129ACOH    O2 9926   6.637   0.375   2.075
  129ACOH    C2 9927   6.562   0.400   2.184
  129ACOH    O1 9928   6.588   0.374   2.300
  129ACOH    C1 9929   6.432   0.459   2.145
  129ACOH    H1 9930   6.352   0.392   2.175
  129ACOH    H2 9931   6.427   0.474   2.037
  129ACOH    H3 9932   6.419   0.554   2.195
  130ACOH    H4 9933   4.619   5.116   1.912
  130ACOH    O2 9934   4.677   5.177   1.859
  130ACOH    C2 9935   4.622   5.299   1.869
  130ACOH    O1 9936   4.507   5.326   1.899
  130ACOH    C1 9937   4.715   5.400   1.810
  130ACOH    H1 9938   4.804   5.405   1.872
  130ACOH    H2 9939   4.668   5.498   1.807
  130ACOH    H3 9940   4.743   5.369   1.710
  131ACOH    H4 9941   7.145   6.220   3.897
  131ACOH    O2 9942   7.174   6.128   3.901
  131ACOH    C2 9943   7.269   6.119   3.997
  131ACOH    O1 9944   7.315   6.212   0.020
  131ACOH    C1 9945   7.317   5.980   4.011
  131ACOH    H1 9946   7.353   5.944   3.915
  131ACOH    H2 9947   7.235   5.916   0.003
  131ACOH    H3 9948   7.398   5.974   0.043
  132ACOH    H4 9949   4.681   1.833   2.572
  132ACOH    O2 9950   4.672   1.777   2.653
  132ACOH    C2 9951   4.781   1.698   2.658
  132ACOH    O1 9952   4.875   1.699   2.580
  132ACOH    C1 9953   4.777   1.608   2.776
  132ACOH    H1 9954   4.863   1.626   2.840
  132ACOH    H2 9955   4.780   1.504   2.742
  132ACOH    H3 9956   4.686   1.623   2.833
  133ACOH    H4 9957   4.769   5.396   2.739
  133ACOH    O2 9958   4.831   5.416   2.814
  133ACOH    C2 9959   4.816   5.319   2.906
  133ACOH    O1 9960   4.745   5.221   2.898
  133ACOH    C1 9961   4.902   5.345   3.024
  133ACOH    H1 9962   4.966   5.259   3.042
  133ACOH    H2 9963   4.839   5.362   3.111
  133ACOH    H3 9964   4.963   5.432   3.007
  134ACOH    H4 9965   0.879   4.009   2.645
  134ACOH    O2 9966   0.781   4.005   2.662
  134ACOH    C2 9967   0.725   4.099   2.583
  134ACOH    O1 9968   0.781   4.165   2.498
  134ACOH    C1 9969   0.578   4.105   2.605
  134ACOH    H1 9970   0.558   4.140   2.705
  134ACOH    H2 9971   0.536   4.005   2.592
  134ACOH    H3 9972   0.532   4.172   2.533
  135ACOH    H4 9973   3.756   6.898   0.701
  135ACOH    O2 9974   3.764   6.825   0.633
  135ACOH    C2 9975   3.704   6.867   0.520
  135ACOH    O1 9976   3.628   6.961   0.509
  135ACOH    C1 9977   3.730   6.772   0.410
  135ACOH    H1 9978   3.675   6.799   0.320
  135ACOH    H2 9979   3.702   6.672   0.440
  135ACOH    H3 9980   3.837   6.772   0.387
  136ACOH    H4 9981   7.274   0.061   0.951
  136ACOH    O2 9982   7.188   0.079   0.903
  136ACOH    C2 9983   7.212   0.182   0.821
  136ACOH    O1 9984   7.313   0.249   0.815
  136ACOH    C1 9985   7.095   0.212   0.735
  136ACOH    H1 9986   7.122   0.199   0.630
  136ACOH    H2 9987   7.063   0.315   0.750
  136ACOH    H3 9988   7.012   0.145   0.758
  137ACOH    H4 9989   7.492   0.191   1.755
  137ACOH    O2 9990   7.449   0.134   1.825
  137ACOH    C2 9991   7.502   0.172   1.943
  137ACOH    O1 9992   7.576   0.267   1.964
  137ACOH    C1 9993   7.453   0.084   2.051
  137ACOH    H1 9994   7.480   9.981   2.028
  137ACOH    H2 9995   7.345   0.091   2.058
  137ACOH    H3 9996   7.497   0.110   2.146
  138ACOH    H4 9997   8.053   2.291   2.789
  138ACOH    O2 9998   7.990   2.353   2.742
  138ACOH    C2 9999   7.867   2.299   2.753
  138ACOH    O110000   7.839   2.197   2.812
  138ACOH    C110001   7.766   2.386   2.687
  138ACOH    H110002   7.787   2.391   2.581
  138ACOH    H210003   7.770   2.486   2.729
  138ACOH    H310004   7.666   2.345   2.701
  139ACOH    H410005   7.815   2.204   1.320
  139ACOH    O210006   7.732   2.257   1.312
  139ACOH    C210007   7.741   2.360   1.398
  139ACOH    O110008   7.825   2.376   1.485
  139ACOH    C110009   7.624   2.450   1.383
  139ACOH    H110010   7.623   2.527   1.460
  139ACOH    H210011   7.533   2.391   1.389
  139ACOH    H310012   7.628   2.497   1.285
  140ACOH    H410013   3.091   8.222   0.814
  140ACOH    O210014   3.094   8.208   0.913
  140ACOH    C210015   3.101   8.331   0.968
  140ACOH    O110016   3.152   8.428   0.914
  140ACOH    C110017   3.078   8.325   1.113
  140ACOH    H110018   3.172   8.338   1.166
  140ACOH    H210019   3.034   8.230   1.142
  140ACOH    H310020   3.010   8.405   1.143
  141ACOH    H410021   8.479   7.154   1.021
  141ACOH    O210022   8.437   7.169   0.931
  141ACOH    C210023   8.520   7.111   0.842
  141ACOH    O110024   8.641   7.104   0.853
  141ACOH    C110025   8.453   7.099   0.710
  141ACOH    H110026   8.372   7.026   0.718
  141ACOH    H210027   8.523   7.065   0.635
  141ACOH    H310028   8.412   7.195   0.680
  142ACOH    H410029   5.487   6.917   2.709
  142ACOH    O210030   5.530   6.892   2.624
  142ACOH    C210031   5.524   6.999   2.542
  142ACOH    O110032   5.467   7.105   2.563
  142ACOH    C110033   5.589   6.968   2.413
  142ACOH    H110034   5.694   6.943   2.430
  142ACOH    H210035   5.584   7.053   2.345
  142ACOH    H310036   5.541   6.882   2.367
  143ACOH    H410037   7.748   9.547   0.669
  143ACOH    O210038   7.825   9.546   0.733
  143ACOH    C210039   7.804   9.441   0.815
  143ACOH    O110040   7.701   9.378   0.827
  143ACOH    C110041   7.921   9.422   0.904
  143ACOH    H110042   7.901   9.345   0.977
  143ACOH    H210043   7.943   9.515   0.956
  143ACOH    H310044   8.007   9.393   0.844
  144ACOH    H410045   5.017   1.211   2.982
  144ACOH    O210046   5.044   1.229   3.077
  144ACOH    C210047   5.050   1.362   3.092
  144ACOH    O110048   4.999   1.445   3.019
  144ACOH    C110049   5.108   1.400   3.223
  144ACOH    H110050   5.030   1.441   3.286
  144ACOH    H210051   5.185   1.474   3.208
  144ACOH    H310052   5.151   1.313   3.272
  145ACOH    H410053   7.137   4.173   0.693
  145ACOH    O210054   7.101   4.128   0.774
  145ACOH    C210055   7.007   4.211   0.824
  145ACOH    O110056   6.959   4.307   0.766
  145ACOH    C110057   6.955   4.164   0.955
  145ACOH    H110058   6.961   4.245   1.027
  145ACOH    H210059   7.013   4.080   0.991
  145ACOH    H310060   6.851   4.134   0.944
  146ACOH    H410061   5.066   7.485   0.405
  146ACOH    O210062   5.149   7.541   0.403
  146ACOH    C210063   5.131   7.644   0.487
  146ACOH    O110064   5.042   7.658   0.569
  146ACOH    C110065   5.245   7.738   0.480
  146ACOH    H110066   5.315   7.708   0.402
  146ACOH    H210067   5.297   7.740   0.575
  146ACOH    H310068   5.208   7.838   0.457
  147ACOH    H410069   4.846   6.846   3.042
  147ACOH    O210070   4.802   6.759   3.024
  147ACOH    C210071   4.888   6.687   2.950
  147ACOH    O110072   5.005   6.715   2.929
  147ACOH    C110073   4.828   6.560   2.904
  147ACOH    H110074   4.880   6.476   2.948
  147ACOH    H210075   4.836   6.553   2.796
  147ACOH    H310076   4.723   6.554   2.931
  148ACOH    H410077   8.447   4.048   1.924
  148ACOH    O210078   8.482   4.140   1.943
  148ACOH    C210079   8.377   4.222   1.926
  148ACOH    O110080   8.290   4.208   1.843
  148ACOH    C110081   8.402   4.351   1.995
  148ACOH    H110082   8.475   4.338   2.074
  148ACOH    H210083   8.309   4.389   2.037
  148ACOH    H310084   8.441   4.423   1.923
  149ACOH    H410085   7.752   6.760   0.146
  149ACOH    O210086   7.774   6.815   0.226
  149ACOH    C210087   7.889   6.767   0.276
  149ACOH    O110088   7.944   6.662   0.246
  149ACOH    C110089   7.937   6.853   0.387
  149ACOH    H110090   7.863   6.857   0.466
  149ACOH    H210091   7.952   6.954   0.349
  149ACOH    H310092   8.031   6.817   0.428
  150ACOH    H410093   5.665   0.761   1.814
  150ACOH    O210094   5.753   0.717   1.799
  150ACOH    C210095   5.733   0.611   1.719
  150ACOH    O110096   5.626   0.568   1.680
  150ACOH    C110097   5.861   0.545   1.683
  150ACOH    H110098   5.874   0.550   1.575
  150ACOH    H210099   5.858   0.441   1.714
  150ACOH    H310100   5.944   0.595   1.731
  151ACOH    H410101   2.867   1.115   1.063
  151ACOH    O210102   2.810   1.092   0.984
  151ACOH    C210103   2.882   0.999   0.918
  151ACOH    O110104   3.003   1.003   0.905
  151ACOH    C110105   2.797   0.922   0.824
  151ACOH    H110106   2.692   0.931   0.850
  151ACOH    H210107   2.825   0.818   0.829
  151ACOH    H310108   2.812   0.958   0.722
  152ACOH    H410109   2.101   1.655   0.180
  152ACOH    O210110   2.052   1.573   0.207
  152ACOH    C210111   1.933   1.611   0.257
  152ACOH    O110112   1.880   1.721   0.248
  152ACOH    C110113   1.867   1.495   0.321
  152ACOH    H110114   1.861   1.414   0.249
  152ACOH    H210115   1.768   1.520   0.355
  152ACOH    H310116   1.927   1.461   0.405
  153ACOH    H410117   8.517   7.153   0.041
  153ACOH    O210118   8.557   7.133   0.130
  153ACOH    C210119   8.603   7.248   0.181
  153ACOH    O110120   8.607   7.356   0.124
  153ACOH    C110121   8.665   7.227   0.314
  153ACOH    H110122   8.649   7.125   0.348
  153ACOH    H210123   8.620   7.295   0.386
  153ACOH    H310124   8.771   7.247   0.309
  154ACOH    H410125   9.122   7.030   0.146
  154ACOH    O210126   9.050   7.060   0.082
  154ACOH    C210127   8.938   6.993   0.112
  154ACOH    O110128   8.915   6.928   0.212
  154ACOH    C110129   8.834   7.020   0.010
  154ACOH    H110130   8.740   6.973   0.036
  154ACOH    H210131   8.867   6.982   3.954
  154ACOH    H310132   8.818   7.128   0.002
  155ACOH    H410133   7.331   6.888   2.998
  155ACOH    O210134   7.232   6.893   2.987
  155ACOH    C210135   7.178   6.890   3.110
  155ACOH    O110136   7.236   6.886   3.216
  155ACOH    C110137   7.030   6.902   3.104
  155ACOH    H110138   6.995   6.889   3.001
  155ACOH    H210139   7.000   7.000   3.139
  155ACOH    H310140   6.984   6.826   3.167
  156ACOH    H410141   5.117   2.077   2.082
  156ACOH    O210142   5.139   1.988   2.121
  156ACOH    C210143   5.176   1.909   2.019
  156ACOH    O110144   5.183   1.939   1.901
  156ACOH    C110145   5.209   1.773   2.069
  156ACOH    H110146   5.288   1.780   2.143
  156ACOH    H210147   5.242   1.709   1.987
  156ACOH    H310148   5.121   1.730   2.115
  157ACOH    H410149   8.902   7.765   1.882
  157ACOH    O210150   8.901   7.860   1.854
  157ACOH    C210151   8.981   7.875   1.747
  157ACOH    O110152   9.044   7.786   1.691
  157ACOH    C110153   8.992   8.016   1.705
  157ACOH    H110154   8.928   8.079   1.766
  157ACOH    H210155   8.963   8.026   1.601
  157ACOH    H310156   9.095   8.050   1.716
  158ACOH    H410157   6.218   8.296   1.817
  158ACOH    O210158   6.170   8.238   1.749
  158ACOH    C210159   6.130   8.128   1.816
  158ACOH    O110160   6.135   8.110   1.936
  158ACOH    C110161   6.062   8.033   1.725
  158ACOH    H110162   6.075   8.061   1.621
  158ACOH    H210163   5.956   8.032   1.748
  158ACOH    H310164   6.102   7.933   1.740
  159ACOH    H410165   7.143   3.440   0.660
  159ACOH    O210166   7.072   3.378   0.687
  159ACOH    C210167   7.131   3.261   0.717
  159ACOH    O110168   7.251   3.237   0.716
  159ACOH    C110169   7.032   3.155   0.749
  159ACOH    H110170   6.933   3.198   0.755
  159ACOH    H210171   7.057   3.109   0.844
  159ACOH    H310172   7.033   3.079   0.671
  160ACOH    H410173   6.759   9.610   1.070
  160ACOH    O210174   6.670   9.569   1.092
  160ACOH    C210175   6.682   9.436   1.073
  160ACOH    O110176   6.786   9.373   1.067
  160ACOH    C110177   6.551   9.368   1.084
  160ACOH    H110178   6.535   9.306   0.996
  160ACOH    H210179   6.470   9.441   1.091
  160ACOH    H310180   6.549   9.305   1.172
  161ACOH    H410181   6.259   0.720   2.829
  161ACOH    O210182   6.329   0.754   2.769
  161ACOH    C210183   6.447   0.722   2.826
  161ACOH    O110184   6.462   0.671   2.935
  161ACOH    C110185   6.559   0.764   2.739
  161ACOH    H110186   6.551   0.870   2.717
  161ACOH    H210187   6.556   0.708   2.646
  161ACOH    H310188   6.655   0.745   2.788
  162ACOH    H410189   4.213   6.930   0.283
  162ACOH    O210190   4.136   6.868   0.275
  162ACOH    C210191   4.123   6.842   0.144
  162ACOH    O110192   4.202   6.871   0.056
  162ACOH    C110193   4.002   6.760   0.120
  162ACOH    H110194   3.914   6.819   0.145
  162ACOH    H210195   4.005   6.672   0.183
  162ACOH    H310196   3.995   6.730   0.016
  163ACOH    H410197   6.111   0.598   2.981
  163ACOH    O210198   6.126   0.664   2.907
  163ACOH    C210199   6.004   0.686   2.853
  163ACOH    O110200   5.901   0.625   2.873
  163ACOH    C110201   6.013   0.796   2.753
  163ACOH    H110202   5.916   0.819   2.712
  163ACOH    H210203   6.080   0.767   2.673
  163ACOH    H310204   6.053   0.884   2.802
  164ACOH    H410205   9.353   8.067   1.980
  164ACOH    O210206   9.382   8.134   2.048
  164ACOH    C210207   9.441   8.234   1.978
  164ACOH    O110208   9.428   8.256   1.860
  164ACOH    C110209   9.509   8.328   2.071
  164ACOH    H110210   9.438   8.365   2.144
  164ACOH    H210211   9.550   8.412   2.016
  164ACOH    H310212   9.589   8.276   2.122
  165ACOH    H410213   7.281   1.018   2.934
  165ACOH    O210214   7.246   1.106   2.906
  165ACOH    C210215   7.112   1.101   2.913
  165ACOH    O110216   7.044   1.009   2.957
  165ACOH    C110217   7.053   1.226   2.861
  165ACOH    H110218   7.076   1.236   2.756
  165ACOH    H210219   7.096   1.311   2.915
  165ACOH    H310220   6.945   1.227   2.875
  166ACOH    H410221   3.858   4.614   0.194
  166ACOH    O210222   3.913   4.594   0.112
  166ACOH    C210223   3.995   4.492   0.145
  166ACOH    O110224   3.988   4.418   0.241
  166ACOH    C110225   4.094   4.469   0.036
  166ACOH    H110226   4.041   4.453   3.983
  166ACOH    H210227   4.155   4.382   0.058
  166ACOH    H310228   4.157   4.556   0.026
  167ACOH    H410229   5.220   1.480   1.786
  167ACOH    O210230   5.296   1.545   1.792
  167ACOH    C210231   5.406   1.473   1.820
  167ACOH    O110232   5.418   1.352   1.819
  167ACOH    C110233   5.522   1.563   1.844
  167ACOH    H110234   5.492   1.667   1.844
  167ACOH    H210235   5.596   1.548   1.766
  167ACOH    H310236   5.566   1.539   1.941
  168ACOH    H410237   4.908   4.923   2.143
  168ACOH    O210238   5.002   4.889   2.144
  168ACOH    C210239   5.007   4.791   2.051
  168ACOH    O110240   4.921   4.761   1.970
  168ACOH    C110241   5.140   4.726   2.055
  168ACOH    H110242   5.216   4.801   2.040
  168ACOH    H210243   5.147   4.650   1.978
  168ACOH    H310244   5.154   4.680   2.153
  169ACOH    H410245   5.215   8.106   2.901
  169ACOH    O210246   5.189   8.046   2.825
  169ACOH    C210247   5.110   7.953   2.881
  169ACOH    O110248   5.129   7.902   2.990
  169ACOH    C110249   5.022   7.889   2.781
  169ACOH    H110250   5.057   7.788   2.760
  169ACOH    H210251   5.020   7.946   2.689
  169ACOH    H310252   4.921   7.883   2.820
  170ACOH    H410253   6.843   9.764   4.027
  170ACOH    O210254   6.801   9.757   0.073
  170ACOH    C210255   6.899   9.772   0.165
  170ACOH    O110256   7.017   9.790   0.142
  170ACOH    C110257   6.847   9.761   0.303
  170ACOH    H110258   6.893   9.677   0.354
  170ACOH    H210259   6.739   9.747   0.302
  170ACOH    H310260   6.870   9.852   0.357
  171ACOH    H410261   7.511   1.772   3.128
  171ACOH    O210262   7.437   1.835   3.150
  171ACOH    C210263   7.412   1.908   3.040
  171ACOH    O110264   7.469   1.902   2.932
  171ACOH    C110265   7.303   2.005   3.065
  171ACOH    H110266   7.263   1.993   3.165
  171ACOH    H210267   7.223   1.988   2.993
  171ACOH    H310268   7.341   2.106   3.053
  172ACOH    H410269   7.937   7.845   0.130
  172ACOH    O210270   7.843   7.852   0.162
  172ACOH    C210271   7.839   7.785   0.279
  172ACOH    O110272   7.903   7.686   0.307
  172ACOH    C110273   7.725   7.833   0.360
  172ACOH    H110274   7.710   7.770   0.447
  172ACOH    H210275   7.634   7.832   0.300
  172ACOH    H310276   7.744   7.934   0.392
  173ACOH    H410277   7.890   8.425   0.578
  173ACOH    O210278   7.903   8.325   0.580
  173ACOH    C210279   7.789   8.273   0.630
  173ACOH    O110280   7.698   8.334   0.682
  173ACOH    C110281   7.794   8.124   0.628
  173ACOH    H110282   7.710   8.087   0.570
  173ACOH    H210283   7.785   8.087   0.730
  173ACOH    H310284   7.887   8.088   0.585
  174ACOH    H410285   7.651   4.617   0.124
  174ACOH    O210286   7.645   4.523   0.151
  174ACOH    C210287   7.584   4.523   0.271
  174ACOH    O110288   7.514   4.613   0.315
  174ACOH    C110289   7.592   4.390   0.336
  174ACOH    H110290   7.619   4.401   0.441
  174ACOH    H210291   7.667   4.329   0.287
  174ACOH    H310292   7.496   4.340   0.329
  175ACOH    H410293   4.184   7.302   2.501
  175ACOH    O210294   4.133   7.254   2.429
  175ACOH    C210295   4.180   7.300   2.311
  175ACOH    O110296   4.247   7.400   2.295
  175ACOH    C110297   4.115   7.229   2.199
  175ACOH    H110298   4.155   7.128   2.192
  175ACOH    H210299   4.134   7.280   2.105
  175ACOH    H310300   4.008   7.223   2.215
  176ACOH    H410301   7.932   8.195   0.992
  176ACOH    O210302   7.836   8.194   0.970
  176ACOH    C210303   7.771   8.155   1.081
  176ACOH    O110304   7.819   8.097   1.176
  176ACOH    C110305   7.625   8.167   1.062
  176ACOH    H110306   7.602   8.228   0.975
  176ACOH    H210307   7.580   8.213   1.150
  176ACOH    H310308   7.582   8.068   1.048
  177ACOH    H410309   4.530   4.836   2.614
  177ACOH    O210310   4.615   4.879   2.644
  177ACOH    C210311   4.684   4.907   2.532
  177ACOH    O110312   4.650   4.887   2.417
  177ACOH    C110313   4.814   4.971   2.565
  177ACOH    H110314   4.869   4.996   2.474
  177ACOH    H210315   4.873   4.904   2.626
  177ACOH    H310316   4.795   5.063   2.621
  178ACOH    H410317   2.976   1.723   1.079
  178ACOH    O210318   2.912   1.797   1.099
  178ACOH    C210319   2.841   1.819   0.986
  178ACOH    O110320   2.851   1.758   0.882
  178ACOH    C110321   2.748   1.933   1.003
  178ACOH    H110322   2.677   1.910   1.081
  178ACOH    H210323   2.695   1.953   0.911
  178ACOH    H310324   2.804   2.021   1.032
  179ACOH    H410325   8.734   3.933   3.946
  179ACOH    O210326   8.737   4.005   4.011
  179ACOH    C210327   8.631   3.989   0.051
  179ACOH    O110328   8.549   3.900   0.044
  179ACOH    C110329   8.627   4.095   0.154
  179ACOH    H110330   8.618   4.192   0.106
  179ACOH    H210331   8.719   4.094   0.212
  179ACOH    H310332   8.543   4.081   0.221
  180ACOH    H410333   6.919   9.488   0.741
  180ACOH    O210334   6.974   9.561   0.782
  180ACOH    C210335   7.096   9.557   0.725
  180ACOH    O110336   7.133   9.483   0.636
  180ACOH    C110337   7.186   9.661   0.780
  180ACOH    H110338   7.271   9.614   0.829
  180ACOH    H210339   7.134   9.723   0.853
  180ACOH    H310340   7.223   9.725   0.701
  181ACOH    H410341   0.791   8.082   0.454
  181ACOH    O210342   0.876   8.040   0.487
  181ACOH    C210343   0.937   7.988   0.379
  181ACOH    O110344   0.914   8.014   0.262
  181ACOH    C110345   1.051   7.903   0.420
  181ACOH    H110346   1.118   7.960   0.484
  181ACOH    H210347   1.107   7.869   0.333
  181ACOH    H310348   1.015   7.817   0.475
  182ACOH    H410349   7.694   4.047   0.246
  182ACOH    O210350   7.620   4.074   0.308
  182ACOH    C210351   7.620   3.988   0.411
  182ACOH    O110352   7.679   3.882   0.419
  182ACOH    C110353   7.523   4.031   0.515
  182ACOH    H110354   7.572   4.037   0.611
  182ACOH    H210355   7.443   3.958   0.521
  182ACOH    H310356   7.480   4.128   0.491
  183ACOH    H410357   1.062   9.626   2.404
  183ACOH    O210358   1.001   9.548   2.422
  183ACOH    C210359   0.883   9.602   2.458
  183ACOH    O110360   0.850   9.718   2.443
  183ACOH    C110361   0.786   9.499   2.501
  183ACOH    H110362   0.833   9.402   2.510
  183ACOH    H210363   0.706   9.492   2.427
  183ACOH    H310364   0.742   9.526   2.597
  184ACOH    H410365   6.172   0.009   2.861
  184ACOH    O210366   6.210   9.918   2.846
  184ACOH    C210367   6.137   9.832   2.919
  184ACOH    O110368   6.050   9.860   3.000
  184ACOH    C110369   6.183   9.693   2.894
  184ACOH    H110370   6.128   9.623   2.956
  184ACOH    H210371   6.288   9.684   2.917
  184ACOH    H310372   6.166   9.668   2.790
  185ACOH    H410373   7.886   3.789   3.982
  185ACOH    O210374   7.790   3.799   4.007
  185ACOH    C210375   7.760   3.698   0.050
  185ACOH    O110376   7.832   3.606   0.084
  185ACOH    C110377   7.620   3.710   0.098
  185ACOH    H110378   7.595   3.628   0.164
  185ACOH    H210379   7.552   3.710   0.013
  185ACOH    H310380   7.609   3.804   0.152
  186ACOH    H410381   2.835   9.297   3.032
  186ACOH    O210382   2.930   9.290   3.063
  186ACOH    C210383   2.991   9.403   3.024
  186ACOH    O110384   2.947   9.488   2.950
  186ACOH    C110385   3.128   9.412   3.081
  186ACOH    H110386   3.135   9.500   3.144
  186ACOH    H210387   3.199   9.421   3.000
  186ACOH    H310388   3.151   9.324   3.140
  187ACOH    H410389   7.635   8.162   0.276
  187ACOH    O210390   7.565   8.196   0.339
  187ACOH    C210391   7.570   8.330   0.333
  187ACOH    O110392   7.653   8.398   0.276
  187ACOH    C110393   7.462   8.391   0.415
  187ACOH    H110394   7.507   8.440   0.501
  187ACOH    H210395   7.392   8.316   0.449
  187ACOH    H310396   7.409   8.465   0.356
  188ACOH    H410397   5.429   7.169   3.158
  188ACOH    O210398   5.457   7.192   3.250
  188ACOH    C210399   5.592   7.185   3.251
  188ACOH    O110400   5.663   7.145   3.161
  188ACOH    C110401   5.645   7.227   3.383
  188ACOH    H110402   5.752   7.207   3.389
  188ACOH    H210403   5.594   7.173   3.462
  188ACOH    H310404   5.628   7.333   3.396
  189ACOH    H410405   7.087   7.937   2.473
  189ACOH    O210406   7.013   7.896   2.525
  189ACOH    C210407   7.052   7.772   2.560
  189ACOH    O110408   7.167   7.729   2.559
  189ACOH    C110409   6.939   7.695   2.616
  189ACOH    H110410   6.863   7.681   2.539
  189ACOH    H210411   6.895   7.749   2.698
  189ACOH    H310412   6.971   7.597   2.651
  190ACOH    H410413   0.137   8.871   3.015
  190ACOH    O210414   0.171   8.951   2.968
  190ACOH    C210415   0.131   8.941   2.840
  190ACOH    O110416   0.103   8.837   2.782
  190ACOH    C110417   0.159   9.067   2.767
  190ACOH    H110418   0.093   9.145   2.803
  190ACOH    H210419   0.143   9.055   2.660
  190ACOH    H310420   0.263   9.096   2.784
  191ACOH    H410421   7.466   1.656   2.638
  191ACOH    O210422   7.438   1.559   2.636
  191ACOH    C210423   7.443   1.516   2.763
  191ACOH    O110424   7.478   1.578   2.861
  191ACOH    C110425   7.395   1.376   2.772
  191ACOH    H110426   7.396   1.341   2.875
  191ACOH    H210427   7.460   1.312   2.713
  191ACOH    H310428   7.294   1.369   2.733
  192ACOH    H410429   7.078   7.876   2.001
  192ACOH    O210430   7.154   7.854   1.942
  192ACOH    C210431   7.263   7.847   2.021
  192ACOH    O110432   7.266   7.849   2.142
  192ACOH    C110433   7.387   7.841   1.940
  192ACOH    H110434   7.440   7.936   1.948
  192ACOH    H210435   7.365   7.822   1.835
  192ACOH    H310436   7.452   7.762   1.976
  193ACOH    H410437   8.030   7.024   0.699
  193ACOH    O210438   7.976   6.969   0.763
  193ACOH    C210439   8.038   6.851   0.777
  193ACOH    O110440   8.122   6.803   0.704
  193ACOH    C110441   7.974   6.773   0.886
  193ACOH    H110442   8.017   6.673   0.893
  193ACOH    H210443   7.868   6.764   0.866
  193ACOH    H310444   7.987   6.825   0.980
  194ACOH    H410445   5.205   0.492   2.904
  194ACOH    O210446   5.242   0.459   2.818
  194ACOH    C210447   5.357   0.393   2.842
  194ACOH    O110448   5.426   0.398   2.942
  194ACOH    C110449   5.401   0.323   2.719
  194ACOH    H110450   5.406   0.394   2.637
  194ACOH    H210451   5.329   0.246   2.694
  194ACOH    H310452   5.499   0.277   2.733
  195ACOH    H410453   1.946   2.874   1.211
  195ACOH    O210454   1.978   2.858   1.118
  195ACOH    C210455   1.882   2.789   1.053
  195ACOH    O110456   1.764   2.785   1.085
  195ACOH    C110457   1.930   2.736   0.924
  195ACOH    H110458   1.909   2.630   0.917
  195ACOH    H210459   2.037   2.751   0.914
  195ACOH    H310460   1.880   2.787   0.843
  196ACOH    H410461   4.954   3.685   1.402
  196ACOH    O210462   4.924   3.739   1.481
  196ACOH    C210463   4.966   3.864   1.459
  196ACOH    O110464   5.037   3.903   1.367
  196ACOH    C110465   4.917   3.954   1.566
  196ACOH    H110466   4.958   4.054   1.554
  196ACOH    H210467   4.947   3.915   1.663
  196ACOH    H310468   4.809   3.960   1.562
  197ACOH    H410469   7.765   5.789   2.344
  197ACOH    O210470   7.718   5.824   2.262
  197ACOH    C210471   7.804   5.813   2.159
  197ACOH    O110472   7.898   5.736   2.150
  197ACOH    C110473   7.756   5.891   2.043
  197ACOH    H110474   7.669   5.951   2.070
  197ACOH    H210475   7.728   5.824   1.962
  197ACOH    H310476   7.834   5.958   2.009
  198ACOH    H410477   7.702   4.935   3.958
  198ACOH    O210478   7.650   4.978   4.028
  198ACOH    C210479   7.652   4.894   0.093
  198ACOH    O110480   7.697   4.781   0.093
  198ACOH    C110481   7.578   4.952   0.207
  198ACOH    H110482   7.479   4.983   0.175
  198ACOH    H210483   7.632   5.039   0.245
  198ACOH    H310484   7.568   4.879   0.288
  199ACOH    H410485   9.316   3.323   1.452
  199ACOH    O210486   9.290   3.400   1.510
  199ACOH    C210487   9.251   3.348   1.628
  199ACOH    O110488   9.265   3.233   1.664
  199ACOH    C110489   9.204   3.453   1.722
  199ACOH    H110490   9.188   3.547   1.669
  199ACOH    H210491   9.279   3.469   1.799
  199ACOH    H310492   9.111   3.422   1.769
  200ACOH    H410493   8.180   4.964   1.127
  200ACOH    O210494   8.141   4.892   1.183
  200ACOH    C210495   8.066   4.956   1.276
  200ACOH    O110496   8.059   5.075   1.296
  200ACOH    C110497   7.997   4.858   1.363
  200ACOH    H110498   8.069   4.789   1.405
  200ACOH    H210499   7.926   4.802   1.303
  200ACOH    H310500   7.944   4.908   1.443
  201ACOH    H410501   8.554   0.262   2.164
  201ACOH    O210502   8.500   0.214   2.233
  201ACOH    C210503   8.576   0.113   2.279
  201ACOH    O110504   8.686   0.080   2.240
  201ACOH    C110505   8.502   0.037   2.383
  201ACOH    H110506   8.560   9.951   2.416
  201ACOH    H210507   8.407   0.003   2.343
  201ACOH    H310508   8.483   0.102   2.468
  202ACOH    H410509   4.491   2.566   0.204
  202ACOH    O210510   4.484   2.488   0.142
  202ACOH    C210511   4.428   2.387   0.212
  202ACOH    O110512   4.389   2.392   0.327
  202ACOH    C110513   4.414   2.265   0.129
  202ACOH    H110514   4.469   2.184   0.176
  202ACOH    H210515   4.454   2.281   0.029
  202ACOH    H310516   4.310   2.237   0.122
  203ACOH    H410517   6.988   4.382   0.608
  203ACOH    O210518   7.026   4.422   0.526
  203ACOH    C210519   7.149   4.371   0.510
  203ACOH    O110520   7.193   4.270   0.563
  203ACOH    C110521   7.224   4.441   0.403
  203ACOH    H110522   7.240   4.374   0.318
  203ACOH    H210523   7.321   4.472   0.441
  203ACOH    H310524   7.170   4.529   0.369
  204ACOH    H410525   4.951   8.281   1.478
  204ACOH    O210526   4.978   8.368   1.520
  204ACOH    C210527   4.865   8.438   1.545
  204ACOH    O110528   4.751   8.406   1.519
  204ACOH    C110529   4.896   8.567   1.610
  204ACOH    H110530   4.853   8.569   1.710
  204ACOH    H210531   4.854   8.649   1.553
  204ACOH    H310532   5.004   8.582   1.619
  205ACOH    H410533   7.293   8.751   1.001
  205ACOH    O210534   7.298   8.672   0.940
  205ACOH    C210535   7.374   8.710   0.836
  205ACOH    O110536   7.405   8.823   0.804
  205ACOH    C110537   7.401   8.596   0.745
  205ACOH    H110538   7.353   8.613   0.649
  205ACOH    H210539   7.364   8.503   0.787
  205ACOH    H310540   7.509   8.587   0.729
  206ACOH    H410541   6.620   7.646   2.283
  206ACOH    O210542   6.558   7.574   2.314
  206ACOH    C210543   6.549   7.485   2.214
  206ACOH    O110544   6.598   7.494   2.103
  206ACOH    C110545   6.463   7.372   2.255
  206ACOH    H110546   6.499   7.330   2.348
  206ACOH    H210547   6.465   7.294   2.179
  206ACOH    H310548   6.360   7.406   2.268
  207ACOH    H410549   8.065   3.290   1.989
  207ACOH    O210550   8.028   3.321   2.076
  207ACOH    C210551   8.006   3.210   2.149
  207ACOH    O110552   8.016   3.095   2.112
  207ACOH    C110553   7.960   3.245   2.286
  207ACOH    H110554   7.942   3.155   2.344
  207ACOH    H210555   7.867   3.301   2.280
  207ACOH    H310556   8.035   3.305   2.335
  208ACOH    H410557   5.181   0.097   2.160
  208ACOH    O210558   5.276   0.070   2.174
  208ACOH    C210559   5.324   0.146   2.274
  208ACOH    O110560   5.267   0.238   2.330
  208ACOH    C110561   5.464   0.110   2.307
  208ACOH    H110562   5.471   0.082   2.412
  208ACOH    H210563   5.529   0.195   2.289
  208ACOH    H310564   5.497   0.027   2.246
  209ACOH    H410565   8.130   4.526   3.851
  209ACOH    O210566   8.051   4.477   3.877
  209ACOH    C210567   8.031   4.501   4.008
  209ACOH    O110568   8.097   4.576   0.036
  209ACOH    C110569   7.913   4.425   0.016
  209ACOH    H110570   7.897   4.443   0.122
  209ACOH    H210571   7.929   4.318   0.001
  209ACOH    H310572   7.825   4.455   4.002
  210ACOH    H410573   5.875   6.989   2.629
  210ACOH    O210574   5.877   6.892   2.606
  210ACOH    C210575   5.950   6.830   2.701
  210ACOH    O110576   6.015   6.883   2.789
  210ACOH    C110577   5.954   6.684   2.678
  210ACOH    H110578   6.055   6.653   2.652
  210ACOH    H210579   5.887   6.655   2.598
  210ACOH    H310580   5.924   6.632   2.769
  211ACOH    H410581   7.674   1.337   1.769
  211ACOH    O210582   7.637   1.407   1.709
  211ACOH    C210583   7.588   1.344   1.601
  211ACOH    O110584   7.590   1.224   1.579
  211ACOH    C110585   7.529   1.441   1.507
  211ACOH    H110586   7.605   1.511   1.474
  211ACOH    H210587   7.449   1.496   1.556
  211ACOH    H310588   7.487   1.390   1.420
  212ACOH    H410589   6.254   7.747   2.556
  212ACOH    O210590   6.282   7.778   2.465
  212ACOH    C210591   6.237   7.686   2.378
  212ACOH    O110592   6.159   7.595   2.402
  212ACOH    C110593   6.275   7.722   2.239
  212ACOH    H110594   6.312   7.634   2.187
  212ACOH    H210595   6.352   7.798   2.239
  212ACOH    H310596   6.188   7.760   2.187
  213ACOH    H410597   2.820   3.762   1.080
  213ACOH    O210598   2.779   3.675   1.108
  213ACOH    C210599   2.861   3.578   1.066
  213ACOH    O110600   2.977   3.591   1.029
  213ACOH    C110601   2.797   3.446   1.082
  213ACOH    H110602   2.713   3.438   1.014
  213ACOH    H210603   2.761   3.434   1.183
  213ACOH    H310604   2.868   3.366   1.060
  214ACOH    H410605   9.376   7.428   2.294
  214ACOH    O210606   9.293   7.375   2.301
  214ACOH    C210607   9.318   7.275   2.388
  214ACOH    O110608   9.427   7.238   2.428
  214ACOH    C110609   9.195   7.199   2.421
  214ACOH    H110610   9.201   7.099   2.378
  214ACOH    H210611   9.108   7.249   2.380
  214ACOH    H310612   9.184   7.191   2.528
  215ACOH    H410613   7.898   7.273   2.126
  215ACOH    O210614   7.817   7.328   2.103
  215ACOH    C210615   7.756   7.355   2.220
  215ACOH    O110616   7.787   7.312   2.330
  215ACOH    C110617   7.634   7.437   2.201
  215ACOH    H110618   7.546   7.379   2.228
  215ACOH    H210619   7.625   7.469   2.098
  215ACOH    H310620   7.639   7.526   2.264
  216ACOH    H410621   4.809   0.581   0.812
  216ACOH    O210622   4.868   0.513   0.770
  216ACOH    C210623   4.893   0.419   0.863
  216ACOH    O110624   4.852   0.416   0.978
  216ACOH    C110625   4.974   0.308   0.808
  216ACOH    H110626   4.918   0.215   0.815
  216ACOH    H210627   5.066   0.298   0.864
  216ACOH    H310628   4.999   0.326   0.704
  217ACOH    H410629   4.938   2.939   3.384
  217ACOH    O210630   5.027   2.927   3.341
  217ACOH    C210631   5.036   3.019   3.243
  217ACOH    O110632   4.955   3.105   3.215
  217ACOH    C110633   5.163   3.005   3.167
  217ACOH    H110634   5.219   3.098   3.172
  217ACOH    H210635   5.140   2.982   3.063
  217ACOH    H310636   5.223   2.925   3.208
  218ACOH    H410637   5.008   3.102   2.696
  218ACOH    O210638   5.105   3.120   2.681
  218ACOH    C210639   5.172   3.005   2.701
  218ACOH    O110640   5.127   2.899   2.741
  218ACOH    C110641   5.317   3.023   2.678
  218ACOH    H110642   5.350   2.952   2.603
  218ACOH    H210643   5.371   3.006   2.770
  218ACOH    H310644   5.337   3.124   2.643
  219ACOH    H410645   6.631   7.129   3.112
  219ACOH    O210646   6.655   7.051   3.058
  219ACOH    C210647   6.541   7.002   3.008
  219ACOH    O110648   6.428   7.026   3.048
  219ACOH    C110649   6.567   6.896   2.907
  219ACOH    H110650   6.611   6.941   2.819
  219ACOH    H210651   6.475   6.845   2.879
  219ACOH    H310652   6.637   6.824   2.948
  220ACOH    H410653   4.427   7.033   2.095
  220ACOH    O210654   4.505   7.045   2.156
  220ACOH    C210655   4.462   7.016   2.281
  220ACOH    O110656   4.348   6.988   2.313
  220ACOH    C110657   4.572   7.025   2.380
  220ACOH    H110658   4.666   7.047   2.331
  220ACOH    H210659   4.581   6.931   2.433
  220ACOH    H310660   4.550   7.104   2.451
  221ACOH    H410661   4.572   2.011   1.255
  221ACOH    O210662   4.517   2.082   1.211
  221ACOH    C210663   4.588   2.125   1.105
  221ACOH    O110664   4.698   2.086   1.070
  221ACOH    C110665   4.518   2.231   1.030
  221ACOH    H110666   4.419   2.249   1.072
  221ACOH    H210667   4.508   2.203   0.926
  221ACOH    H310668   4.575   2.324   1.037
  222ACOH    H410669   4.639   5.282   2.183
  222ACOH    O210670   4.729   5.290   2.142
  222ACOH    C210671   4.818   5.284   2.243
  222ACOH    O110672   4.799   5.331   2.354
  222ACOH    C110673   4.954   5.255   2.193
  222ACOH    H110674   4.949   5.211   2.093
  222ACOH    H210675   5.003   5.184   2.259
  222ACOH    H310676   5.013   5.346   2.189
  223ACOH    H410677   4.589   3.965   3.928
  223ACOH    O210678   4.682   3.978   3.903
  223ACOH    C210679   4.756   3.934   4.006
  223ACOH    O110680   4.714   3.888   0.070
  223ACOH    C110681   4.901   3.949   3.976
  223ACOH    H110682   4.961   3.915   0.019
  223ACOH    H210683   4.923   4.053   3.956
  223ACOH    H310684   4.925   3.890   3.887
  224ACOH    H410685   7.700   0.588   1.403
  224ACOH    O210686   7.627   0.608   1.337
  224ACOH    C210687   7.686   0.652   1.225
  224ACOH    O110688   7.794   0.615   1.182
  224ACOH    C110689   7.588   0.722   1.139
  224ACOH    H110690   7.633   0.810   1.095
  224ACOH    H210691   7.501   0.751   1.196
  224ACOH    H310692   7.556   0.655   1.059
  225ACOH    H410693   4.891   6.801   2.337
  225ACOH    O210694   4.830   6.724   2.317
  225ACOH    C210695   4.846   6.636   2.417
  225ACOH    O110696   4.914   6.650   2.517
  225ACOH    C110697   4.764   6.514   2.397
  225ACOH    H110698   4.713   6.517   2.302
  225ACOH    H210699   4.690   6.507   2.477
  225ACOH    H310700   4.828   6.426   2.400
  226ACOH    H410701   7.310   3.443   0.374
  226ACOH    O210702   7.254   3.521   0.351
  226ACOH    C210703   7.230   3.589   0.464
  226ACOH    O110704   7.252   3.550   0.578
  226ACOH    C110705   7.156   3.715   0.439
  226ACOH    H110706   7.146   3.733   0.332
  226ACOH    H210707   7.209   3.798   0.485
  226ACOH    H310708   7.057   3.708   0.483
  227ACOH    H410709   5.445   3.307   0.692
  227ACOH    O210710   5.531   3.337   0.653
  227ACOH    C210711   5.581   3.431   0.735
  227ACOH    O110712   5.534   3.469   0.841
  227ACOH    C110713   5.710   3.484   0.684
  227ACOH    H110714   5.734   3.439   0.587
  227ACOH    H210715   5.789   3.460   0.754
  227ACOH    H310716   5.703   3.591   0.672
  228ACOH    H410717   3.892   0.171   0.812
  228ACOH    O210718   3.864   0.079   0.838
  228ACOH    C210719   3.979   0.010   0.855
  228ACOH    O110720   4.093   0.051   0.845
  228ACOH    C110721   3.952   9.868   0.891
  228ACOH    H110722   3.845   9.849   0.899
  228ACOH    H210723   3.999   9.845   0.985
  228ACOH    H310724   3.992   9.803   0.814
  229ACOH    H410725   5.095   2.273   2.499
  229ACOH    O210726   5.145   2.190   2.480
  229ACOH    C210727   5.059   2.087   2.478
  229ACOH    O110728   4.940   2.091   2.503
  229ACOH    C110729   5.126   1.959   2.444
  229ACOH    H110730   5.117   1.889   2.527
  229ACOH    H210731   5.232   1.975   2.423
  229ACOH    H310732   5.080   1.915   2.357
  230ACOH    H410733   7.457   8.344   1.361
  230ACOH    O210734   7.393   8.315   1.291
  230ACOH    C210735   7.358   8.423   1.219
  230ACOH    O110736   7.402   8.536   1.233
  230ACOH    C110737   7.266   8.389   1.108
  230ACOH    H110738   7.228   8.288   1.120
  230ACOH    H210739   7.319   8.397   1.014
  230ACOH    H310740   7.183   8.460   1.107
  231ACOH    H410741   2.045   1.211   0.995
  231ACOH    O210742   1.985   1.133   1.008
  231ACOH    C210743   1.872   1.183   1.062
  231ACOH    O110744   1.864   1.285   1.128
  231ACOH    C110745   1.763   1.083   1.058
  231ACOH    H110746   1.734   1.066   0.955
  231ACOH    H210747   1.677   1.119   1.113
  231ACOH    H310748   1.797   0.990   1.102
  232ACOH    H410749   5.246   3.343   0.605
  232ACOH    O210750   5.198   3.387   0.531
  232ACOH    C210751   5.219   3.310   0.422
  232ACOH    O110752   5.289   3.211   0.415
  232ACOH    C110753   5.142   3.362   0.306
  232ACOH    H110754   5.160   3.301   0.218
  232ACOH    H210755   5.172   3.465   0.286
  232ACOH    H310756   5.036   3.359   0.330
  233ACOH    H410757   7.850   5.673   0.116
  233ACOH    O210758   7.764   5.690   0.069
  233ACOH    C210759   7.777   5.638   3.986
  233ACOH    O110760   7.873   5.579   3.941
  233ACOH    C110761   7.656   5.664   3.904
  233ACOH    H110762   7.580   5.714   3.964
  233ACOH    H210763   7.617   5.570   3.867
  233ACOH    H310764   7.683   5.727   3.820
  234ACOH    H410765   4.565   2.156   0.635
  234ACOH    O210766   4.651   2.105   0.649
  234ACOH    C210767   4.751   2.196   0.643
  234ACOH    O110768   4.738   2.315   0.623
  234ACOH    C110769   4.883   2.132   0.660
  234ACOH    H110770   4.874   2.026   0.680
  234ACOH    H210771   4.936   2.178   0.743
  234ACOH    H310772   4.943   2.146   0.570
  235ACOH    H410773   7.530   5.965   3.340
  235ACOH    O210774   7.515   5.876   3.304
  235ACOH    C210775   7.521   5.885   3.170
  235ACOH    O110776   7.540   5.987   3.106
  235ACOH    C110777   7.502   5.752   3.108
  235ACOH    H110778   7.405   5.713   3.136
  235ACOH    H210779   7.579   5.684   3.144
  235ACOH    H310780   7.508   5.759   3.000
  236ACOH    H410781   8.947   1.735   2.516
  236ACOH    O210782   8.999   1.799   2.461
  236ACOH    C210783   8.978   1.922   2.510
  236ACOH    O110784   8.895   1.954   2.593
  236ACOH    C110785   9.063   2.022   2.441
  236ACOH    H110786   9.113   2.085   2.514
  236ACOH    H210787   9.001   2.084   2.377
  236ACOH    H310788   9.138   1.972   2.380
  237ACOH    H410789   0.233   8.711   2.793
  237ACOH    O210790   0.297   8.652   2.840
  237ACOH    C210791   0.419   8.707   2.825
  237ACOH    O110792   0.443   8.817   2.777
  237ACOH    C110793   0.524   8.624   2.888
  237ACOH    H110794   0.600   8.601   2.815
  237ACOH    H210795   0.482   8.531   2.926
  237ACOH    H310796   0.569   8.679   2.970
  238ACOH    H410797   7.720   5.081   1.328
  238ACOH    O210798   7.730   5.033   1.241
  238ACOH    C210799   7.774   5.123   1.152
  238ACOH    O110800   7.774   5.244   1.163
  238ACOH    C110801   7.807   5.056   1.024
  238ACOH    H110802   7.895   4.993   1.038
  238ACOH    H210803   7.827   5.129   0.946
  238ACOH    H310804   7.724   4.993   0.993
  239ACOH    H410805   5.167   9.316   1.753
  239ACOH    O210806   5.248   9.267   1.726
  239ACOH    C210807   5.296   9.324   1.614
  239ACOH    O110808   5.244   9.413   1.550
  239ACOH    C110809   5.420   9.256   1.569
  239ACOH    H110810   5.398   9.202   1.477
  239ACOH    H210811   5.455   9.186   1.644
  239ACOH    H310812   5.497   9.329   1.549
  240ACOH    H410813   3.035   9.120   2.854
  240ACOH    O210814   2.955   9.100   2.798
  240ACOH    C210815   2.867   9.035   2.877
  240ACOH    O110816   2.893   8.979   2.982
  240ACOH    C110817   2.740   9.013   2.804
  240ACOH    H110818   2.760   8.969   2.706
  240ACOH    H210819   2.690   9.108   2.790
  240ACOH    H310820   2.674   8.946   2.859
  241ACOH    H410821   5.028   2.838   2.435
  241ACOH    O210822   5.106   2.899   2.421
  241ACOH    C210823   5.161   2.866   2.303
  241ACOH    O110824   5.137   2.767   2.236
  241ACOH    C110825   5.270   2.960   2.266
  241ACOH    H110826   5.250   3.001   2.167
  241ACOH    H210827   5.364   2.907   2.263
  241ACOH    H310828   5.276   3.042   2.337
  242ACOH    H410829   8.113   8.241   0.874
  242ACOH    O210830   8.100   8.186   0.955
  242ACOH    C210831   8.169   8.072   0.934
  242ACOH    O110832   8.193   8.024   0.825
  242ACOH    C110833   8.182   7.993   1.059
  242ACOH    H110834   8.164   8.056   1.146
  242ACOH    H210835   8.283   7.953   1.066
  242ACOH    H310836   8.110   7.912   1.059
  243ACOH    H410837   1.717   6.575   2.352
  243ACOH    O210838   1.737   6.671   2.338
  243ACOH    C210839   1.794   6.684   2.217
  243ACOH    O110840   1.798   6.599   2.130
  243ACOH    C110841   1.839   6.823   2.194
  243ACOH    H110842   1.755   6.891   2.205
  243ACOH    H210843   1.881   6.835   2.095
  243ACOH    H310844   1.914   6.850   2.268
  244ACOH    H410845   8.239   1.425   1.193
  244ACOH    O210846   8.236   1.524   1.204
  244ACOH    C210847   8.134   1.550   1.289
  244ACOH    O110848   8.050   1.472   1.328
  244ACOH    C110849   8.128   1.696   1.316
  244ACOH    H110850   8.042   1.719   1.380
  244ACOH    H210851   8.119   1.751   1.223
  244ACOH    H310852   8.218   1.727   1.368
  245ACOH    H410853   5.394   1.743   1.421
  245ACOH    O210854   5.417   1.805   1.346
  245ACOH    C210855   5.312   1.808   1.262
  245ACOH    O110856   5.209   1.744   1.271
  245ACOH    C110857   5.337   1.906   1.154
  245ACOH    H110858   5.253   1.911   1.085
  245ACOH    H210859   5.425   1.876   1.097
  245ACOH    H310860   5.354   2.004   1.196
  246ACOH    H410861   4.178   6.686   2.102
  246ACOH    O210862   4.269   6.714   2.073
  246ACOH    C210863   4.356   6.666   2.164
  246ACOH    O110864   4.329   6.614   2.271
  246ACOH    C110865   4.496   6.694   2.123
  246ACOH    H110866   4.506   6.797   2.092
  246ACOH    H210867   4.521   6.630   2.039
  246ACOH    H310868   4.565   6.675   2.204
  247ACOH    H410869   4.789   3.294   1.055
  247ACOH    O210870   4.739   3.262   1.134
  247ACOH    C210871   4.831   3.232   1.228
  247ACOH    O110872   4.950   3.255   1.223
  247ACOH    C110873   4.766   3.173   1.348
  247ACOH    H110874   4.684   3.237   1.379
  247ACOH    H210875   4.837   3.164   1.429
  247ACOH    H310876   4.727   3.075   1.323
  248ACOH    H410877   4.467   4.186   1.327
  248ACOH    O210878   4.505   4.260   1.272
  248ACOH    C210879   4.406   4.303   1.192
  248ACOH    O110880   4.286   4.296   1.215
  248ACOH    C110881   4.460   4.393   1.088
  248ACOH    H110882   4.401   4.384   0.997
  248ACOH    H210883   4.563   4.366   1.065
  248ACOH    H310884   4.458   4.496   1.123
  249ACOH    H410885   4.242   7.070   0.689
  249ACOH    O210886   4.299   7.035   0.616
  249ACOH    C210887   4.425   7.032   0.662
  249ACOH    O110888   4.463   7.060   0.774
  249ACOH    C110889   4.518   6.988   0.555
  249ACOH    H110890   4.620   6.986   0.590
  249ACOH    H210891   4.510   7.057   0.471
  249ACOH    H310892   4.489   6.889   0.521
  250ACOH    H410893   3.600   6.076   2.966
  250ACOH    O210894   3.616   6.147   3.034
  250ACOH    C210895   3.722   6.218   2.991
  250ACOH    O110896   3.805   6.182   2.909
  250ACOH    C110897   3.739   6.342   3.069
  250ACOH    H110898   3.658   6.354   3.140
  250ACOH    H210899   3.739   6.427   3.001
  250ACOH    H310900   3.834   6.340   3.122
  251ACOH    H410901   2.630   3.554   2.552
  251ACOH    O210902   2.686   3.479   2.590
  251ACOH    C210903   2.804   3.482   2.525
  251ACOH    O110904   2.820   3.524   2.412
  251ACOH    C110905   2.902   3.392   2.589
  251ACOH    H110906   2.906   3.298   2.535
  251ACOH    H210907   2.874   3.372   2.692
  251ACOH    H310908   3.001   3.438   2.588
  252ACOH    H410909   5.324   9.182   3.059
  252ACOH    O210910   5.234   9.176   3.102
  252ACOH    C210911   5.236   9.063   3.175
  252ACOH    O110912   5.331   8.989   3.193
  252ACOH    C110913   5.105   9.042   3.241
  252ACOH    H110914   5.081   9.128   3.303
  252ACOH    H210915   5.107   8.953   3.304
  252ACOH    H310916   5.028   9.030   3.165
  253ACOH    H410917   7.595   1.314   0.682
  253ACOH    O210918   7.505   1.272   0.683
  253ACOH    C210919   7.416   1.372   0.663
  253ACOH    O110920   7.441   1.489   0.644
  253ACOH    C110921   7.276   1.323   0.663
  253ACOH    H110922   7.271   1.220   0.698
  253ACOH    H210923   7.236   1.327   0.562
  253ACOH    H310924   7.215   1.386   0.727
  254ACOH    H410925   4.653   2.924   2.234
  254ACOH    O210926   4.699   2.977   2.303
  254ACOH    C210927   4.797   3.048   2.244
  254ACOH    O110928   4.807   3.070   2.124
  254ACOH    C110929   4.877   3.123   2.343
  254ACOH    H110930   4.851   3.228   2.341
  254ACOH    H210931   4.983   3.113   2.320
  254ACOH    H310932   4.861   3.083   2.443
  255ACOH    H410933   4.884   9.392   1.004
  255ACOH    O210934   4.817   9.456   0.968
  255ACOH    C210935   4.711   9.387   0.922
  255ACOH    O110936   4.597   9.425   0.938
  255ACOH    C110937   4.741   9.248   0.879
  255ACOH    H110938   4.787   9.193   0.960
  255ACOH    H210939   4.810   9.251   0.794
  255ACOH    H310940   4.651   9.197   0.848
  256ACOH    H410941   7.194   1.373   0.302
  256ACOH    O210942   7.096   1.385   0.317
  256ACOH    C210943   7.054   1.477   0.228
  256ACOH    O110944   7.123   1.538   0.149
  256ACOH    C110945   6.908   1.497   0.239
  256ACOH    H110946   6.857   1.403   0.221
  256ACOH    H210947   6.874   1.570   0.167
  256ACOH    H310948   6.884   1.532   0.339
  257ACOH    H410949   5.793   9.278   2.068
  257ACOH    O210950   5.706   9.325   2.061
  257ACOH    C210951   5.653   9.294   1.941
  257ACOH    O110952   5.702   9.222   1.856
  257ACOH    C110953   5.520   9.355   1.922
  257ACOH    H110954   5.520   9.420   1.835
  257ACOH    H210955   5.491   9.414   2.009
  257ACOH    H310956   5.446   9.277   1.907
  258ACOH    H410957   4.926   2.756   1.214
  258ACOH    O210958   5.018   2.795   1.208
  258ACOH    C210959   5.097   2.720   1.287
  258ACOH    O110960   5.065   2.620   1.350
  258ACOH    C110961   5.235   2.774   1.286
  258ACOH    H110962   5.273   2.775   1.184
  258ACOH    H210963   5.300   2.713   1.348
  258ACOH    H310964   5.234   2.876   1.324
  259ACOH    H410965   6.372   0.028   1.835
  259ACOH    O210966   6.443   0.087   1.875
  259ACOH    C210967   6.560   0.046   1.822
  259ACOH    O110968   6.575   9.968   1.730
  259ACOH    C110969   6.674   0.114   1.887
  259ACOH    H110970   6.769   0.081   1.844
  259ACOH    H210971   6.675   0.092   1.994
  259ACOH    H310972   6.665   0.221   1.874
  260ACOH    H410973   5.425   7.180   2.928
  260ACOH    O210974   5.385   7.130   3.005
  260ACOH    C210975   5.371   7.003   2.963
  260ACOH    O110976   5.419   6.953   2.863
  260ACOH    C110977   5.299   6.924   3.065
  260ACOH    H110978   5.354   6.926   3.159
  260ACOH    H210979   5.288   6.820   3.033
  260ACOH    H310980   5.200   6.966   3.081
  261ACOH    H410981   7.857   4.470   1.118
  261ACOH    O210982   7.761   4.499   1.115
  261ACOH    C210983   7.760   4.632   1.101
  261ACOH    O110984   7.855   4.703   1.072
  261ACOH    C110985   7.623   4.686   1.112
  261ACOH    H110986   7.621   4.793   1.094
  261ACOH    H210987   7.585   4.667   1.212
  261ACOH    H310988   7.559   4.636   1.039
  262ACOH    H410989   3.749   0.110   1.231
  262ACOH    O210990   3.703   0.191   1.201
  262ACOH    C210991   3.786   0.254   1.116
  262ACOH    O110992   3.905   0.234   1.106
  262ACOH    C110993   3.720   0.371   1.053
  262ACOH    H110994   3.612   0.366   1.066
  262ACOH    H210995   3.743   0.373   0.947
  262ACOH    H310996   3.757   0.462   1.099
  263ACOH    H410997   7.700   4.710   3.295
  263ACOH    O210998   7.690   4.614   3.293
  263ACOH    C210999   7.795   4.566   3.224
  263ACOH    O111000   7.887   4.631   3.178
  263ACOH    C111001   7.790   4.418   3.211
  263ACOH    H111002   7.701   4.378   3.260
  263ACOH    H211003   7.878   4.374   3.257
  263ACOH    H311004   7.787   4.391   3.106
  264ACOH    H411005   3.566   5.898   1.591
  264ACOH    O211006   3.533   5.980   1.639
  264ACOH    C211007   3.431   6.029   1.566
  264ACOH    O111008   3.376   5.975   1.471
  264ACOH    C111009   3.379   6.156   1.622
  264ACOH    H111010   3.275   6.143   1.652
  264ACOH    H211011   3.385   6.235   1.547
  264ACOH    H311012   3.436   6.186   1.709
  265ACOH    H411013   7.372   1.405   2.271
  265ACOH    O211014   7.347   1.414   2.175
  265ACOH    C211015   7.460   1.421   2.103
  265ACOH    O111016   7.574   1.425   2.146
  265ACOH    C111017   7.431   1.428   1.958
  265ACOH    H111018   7.470   1.339   1.909
  265ACOH    H211019   7.478   1.516   1.915
  265ACOH    H311020   7.323   1.433   1.940
  266ACOH    H411021   7.306   0.342   2.490
  266ACOH    O211022   7.350   0.353   2.401
  266ACOH    C211023   7.483   0.347   2.425
  266ACOH    O111024   7.537   0.347   2.534
  266ACOH    C111025   7.562   0.351   2.300
  266ACOH    H111026   7.623   0.441   2.298
  266ACOH    H211027   7.497   0.351   2.213
  266ACOH    H311028   7.628   0.265   2.295
  267ACOH    H411029   4.857   2.687   1.991
  267ACOH    O211030   4.912   2.761   1.956
  267ACOH    C211031   4.832   2.840   1.882
  267ACOH    O111032   4.710   2.835   1.875
  267ACOH    C111033   4.910   2.945   1.812
  267ACOH    H111034   5.016   2.934   1.833
  267ACOH    H211035   4.877   3.043   1.846
  267ACOH    H311036   4.894   2.937   1.705
  268ACOH    H411037   7.229   3.931   1.041
  268ACOH    O211038   7.232   3.953   1.138
  268ACOH    C211039   7.345   3.900   1.188
  268ACOH    O111040   7.424   3.828   1.128
  268ACOH    C111041   7.362   3.933   1.331
  268ACOH    H111042   7.282   3.999   1.365
  268ACOH    H211043   7.457   3.983   1.346
  268ACOH    H311044   7.360   3.842   1.390
  269ACOH    H411045   3.904   9.809   2.788
  269ACOH    O211046   3.847   9.864   2.848
  269ACOH    C211047   3.780   9.778   2.927
  269ACOH    O111048   3.759   9.661   2.902
  269ACOH    C111049   3.708   9.850   3.035
  269ACOH    H111050   3.603   9.855   3.011
  269ACOH    H211051   3.747   9.950   3.048
  269ACOH    H311052   3.720   9.796   3.129
  270ACOH    H411053   3.564   7.360   3.141
  270ACOH    O211054   3.521   7.298   3.205
  270ACOH    C211055   3.591   7.183   3.204
  270ACOH    O111056   3.702   7.165   3.159
  270ACOH    C111057   3.521   7.081   3.285
  270ACOH    H111058   3.430   7.051   3.234
  270ACOH    H211059   3.495   7.123   3.382
  270ACOH    H311060   3.583   6.993   3.300
  271ACOH    H411061   7.809   5.613   0.666
  271ACOH    O211062   7.747   5.599   0.743
  271ACOH    C211063   7.763   5.471   0.782
  271ACOH    O111064   7.857   5.399   0.756
  271ACOH    C111065   7.658   5.432   0.879
  271ACOH    H111066   7.702   5.423   0.978
  271ACOH    H211067   7.616   5.336   0.851
  271ACOH    H311068   7.579   5.506   0.882
  272ACOH    H411069   5.197   1.101   2.499
  272ACOH    O211070   5.295   1.119   2.504
  272ACOH    C211071   5.352   1.050   2.404
  272ACOH    O111072   5.301   0.968   2.330
  272ACOH    C111073   5.496   1.085   2.394
  272ACOH    H111074   5.542   1.034   2.310
  272ACOH    H211075   5.546   1.055   2.485
  272ACOH    H311076   5.506   1.192   2.381
  273ACOH    H411077   6.657   8.238   3.106
  273ACOH    O211078   6.670   8.282   3.194
  273ACOH    C211079   6.615   8.205   3.291
  273ACOH    O111080   6.607   8.238   3.407
  273ACOH    C111081   6.564   8.073   3.244
  273ACOH    H111082   6.488   8.088   3.168
  273ACOH    H211083   6.519   8.018   3.327
  273ACOH    H311084   6.645   8.015   3.203
  274ACOH    H411085   7.684   6.251   2.693
  274ACOH    O211086   7.670   6.169   2.639
  274ACOH    C211087   7.678   6.206   2.509
  274ACOH    O111088   7.713   6.315   2.468
  274ACOH    C111089   7.657   6.092   2.418
  274ACOH    H111090   7.585   6.119   2.341
  274ACOH    H211091   7.619   6.005   2.472
  274ACOH    H311092   7.751   6.065   2.371
  275ACOH    H411093   5.076   9.314   0.668
  275ACOH    O211094   5.165   9.295   0.710
  275ACOH    C211095   5.154   9.185   0.786
  275ACOH    O111096   5.057   9.112   0.798
  275ACOH    C111097   5.283   9.153   0.852
  275ACOH    H111098   5.268   9.150   0.959
  275ACOH    H211099   5.357   9.230   0.829
  275ACOH    H311100   5.319   9.057   0.817
  276ACOH    H411101   6.420   9.328   1.397
  276ACOH    O211102   6.327   9.324   1.361
  276ACOH    C211103   6.247   9.384   1.451
  276ACOH    O111104   6.282   9.439   1.555
  276ACOH    C111105   6.105   9.373   1.412
  276ACOH    H111106   6.051   9.314   1.486
  276ACOH    H211107   6.096   9.325   1.315
  276ACOH    H311108   6.061   9.472   1.406
  277ACOH    H411109   7.198   7.306   2.622
  277ACOH    O211110   7.179   7.210   2.642
  277ACOH    C211111   7.070   7.208   2.721
  277ACOH    O111112   7.013   7.303   2.770
  277ACOH    C111113   7.028   7.068   2.749
  277ACOH    H111114   7.000   7.019   2.657
  277ACOH    H211115   6.944   7.066   2.818
  277ACOH    H311116   7.112   7.015   2.794
  278ACOH    H411117   6.651   9.958   1.579
  278ACOH    O211118   6.697   9.955   1.491
  278ACOH    C211119   6.697   9.827   1.450
  278ACOH    O111120   6.644   9.733   1.506
  278ACOH    C111121   6.769   9.812   1.322
  278ACOH    H111122   6.812   9.907   1.290
  278ACOH    H211123   6.701   9.777   1.245
  278ACOH    H311124   6.850   9.740   1.333
  279ACOH    H411125   5.262   2.783   0.459
  279ACOH    O211126   5.349   2.801   0.414
  279ACOH    C211127   5.323   2.888   0.314
  279ACOH    O111128   5.214   2.921   0.273
  279ACOH    C111129   5.448   2.937   0.252
  279ACOH    H111130   5.535   2.891   0.297
  279ACOH    H211131   5.454   3.045   0.267
  279ACOH    H311132   5.447   2.916   0.145
  280ACOH    H411133   4.974   7.390   2.116
  280ACOH    O211134   4.939   7.297   2.102
  280ACOH    C211135   4.871   7.299   1.985
  280ACOH    O111136   4.871   7.388   1.903
  280ACOH    C111137   4.798   7.171   1.966
  280ACOH    H111138   4.722   7.161   2.043
  280ACOH    H211139   4.867   7.088   1.974
  280ACOH    H311140   4.750   7.169   1.868
  281ACOH    H411141   0.758   8.543   1.204
  281ACOH    O211142   0.713   8.464   1.163
  281ACOH    C211143   0.648   8.403   1.264
  281ACOH    O111144   0.661   8.426   1.383
  281ACOH    C111145   0.568   8.287   1.216
  281ACOH    H111146   0.558   8.289   1.108
  281ACOH    H211147   0.470   8.290   1.261
  281ACOH    H311148   0.618   8.195   1.244
  282ACOH    H411149   5.140   1.973   0.795
  282ACOH    O211150   5.179   1.951   0.705
  282ACOH    C211151   5.309   1.921   0.724
  282ACOH    O111152   5.373   1.931   0.827
  282ACOH    C111153   5.372   1.873   0.599
  282ACOH    H111154   5.403   1.770   0.613
  282ACOH    H211155   5.459   1.934   0.577
  282ACOH    H311156   5.302   1.879   0.516
  283ACOH    H411157   6.061   9.917   3.166
  283ACOH    O211158   6.061   9.950   3.259
  283ACOH    C211159   6.186   9.926   3.306
  283ACOH    O111160   6.281   9.884   3.242
  283ACOH    C111161   6.195   9.963   3.449
  283ACOH    H111162   6.296   9.946   3.486
  283ACOH    H211163   6.126   9.902   3.507
  283ACOH    H311164   6.170   0.067   3.462
  284ACOH    H411165   4.843   1.535   1.245
  284ACOH    O211166   4.890   1.538   1.156
  284ACOH    C211167   4.891   1.413   1.107
  284ACOH    O111168   4.859   1.311   1.166
  284ACOH    C111169   4.950   1.408   0.971
  284ACOH    H111170   4.881   1.361   0.903
  284ACOH    H211171   5.042   1.351   0.974
  284ACOH    H311172   4.972   1.508   0.935
  285ACOH    H411173   4.821   7.422   0.742
  285ACOH    O211174   4.841   7.342   0.797
  285ACOH    C211175   4.816   7.235   0.719
  285ACOH    O111176   4.812   7.234   0.598
  285ACOH    C111177   4.819   7.110   0.800
  285ACOH    H111178   4.907   7.109   0.862
  285ACOH    H211179   4.821   7.023   0.735
  285ACOH    H311180   4.730   7.106   0.862
  286ACOH    H411181   5.434   1.329   2.158
  286ACOH    O211182   5.342   1.353   2.187
  286ACOH    C211183   5.358   1.427   2.299
  286ACOH    O111184   5.463   1.459   2.351
  286ACOH    C111185   5.226   1.470   2.352
  286ACOH    H111186   5.166   1.382   2.375
  286ACOH    H211187   5.175   1.529   2.278
  286ACOH    H311188   5.239   1.529   2.442
  287ACOH    H411189   4.353   3.366   0.106
  287ACOH    O211190   4.268   3.412   0.082
  287ACOH    C211191   4.168   3.348   0.144
  287ACOH    O111192   4.172   3.237   0.195
  287ACOH    C111193   4.040   3.422   0.129
  287ACOH    H111194   4.057   3.520   0.086
  287ACOH    H211195   3.994   3.435   0.226
  287ACOH    H311196   3.973   3.366   0.065
  288SOL     OW11197   2.579   9.502   0.622
  288SOL    HW111198   2.519   9.543   0.690
  288SOL    HW211199   2.659   9.560   0.609
  289SOL     OW11200   0.478   5.052   2.692
  289SOL    HW111201   0.558   5.023   2.745
  289SOL    HW211202   0.465   5.151   2.704
  290SOL     OW11203   0.029   0.067   2.377
  290SOL    HW111204   0.027   9.994   2.309
  290SOL    HW211205   0.043   0.027   2.468
  291SOL     OW11206   1.373   1.149   0.123
  291SOL    HW111207   1.408   1.171   0.215
  291SOL    HW211208   1.425   1.200   0.055
  292SOL     OW11209   9.226   6.308   2.228
  292SOL    HW111210   9.322   6.324   2.204
  292SOL    HW211211   9.221   6.250   2.309
  293SOL     OW11212   8.610   9.514   0.724
  293SOL    HW111213   8.583   9.595   0.671
  293SOL    HW211214   8.695   9.533   0.773
  294SOL     OW11215   0.651   9.360   3.082
  294SOL    HW111216   0.645   9.357   3.182
  294SOL    HW211217   0.586   9.294   3.044
  295SOL     OW11218   9.757   5.583   2.986
  295SOL    HW111219   9.697   5.606   2.910
  295SOL    HW211220   9.722   5.502   3.034
  296SOL     OW11221   1.381   9.117   1.411
  296SOL    HW111222   1.463   9.087   1.362
  296SOL    HW211223   1.396   9.108   1.509
  297SOL     OW11224   8.291   8.429   3.010
  297SOL    HW111225   8.305   8.335   3.039
  297SOL    HW211226   8.378   8.471   2.984
  298SOL     OW11227   8.800   6.376   1.240
  298SOL    HW111228   8.809   6.471   1.269
  298SOL    HW211229   8.719   6.365   1.183
  299SOL     OW11230   2.991   4.957   0.716
  299SOL    HW111231   2.964   5.034   0.774
  299SOL    HW211232   2.911   4.925   0.665
  300SOL     OW11233   1.293   4.380   3.050
  300SOL    HW111234   1.264   4.330   3.132
  300SOL    HW211235   1.329   4.469   3.077
  301SOL     OW11236   1.258   7.838   1.270
  301SOL    HW111237   1.186   7.852   1.201
  301SOL    HW211238   1.237   7.892   1.351
  302SOL     OW11239   9.928   3.411   3.050
  302SOL    HW111240   9.895   3.393   2.958
  302SOL    HW211241   9.881   3.491   3.087
  303SOL     OW11242   9.368   2.310   1.057
  303SOL    HW111243   9.339   2.214   1.055
  303SOL    HW211244   9.295   2.368   1.020
  304SOL     OW11245   3.034   5.573   1.922
  304SOL    HW111246   3.036   5.655   1.865
  304SOL    HW211247   2.954   5.576   1.982
  305SOL     OW11248   1.673   8.949   2.165
  305SOL    HW111249   1.742   8.888   2.126
  305SOL    HW211250   1.704   9.044   2.158
  306SOL     OW11251   2.450   1.677   0.064
  306SOL    HW111252   2.500   1.761   0.043
  306SOL    HW211253   2.356   1.699   0.090
  307SOL     OW11254   7.815   8.278   1.538
  307SOL    HW111255   7.830   8.297   1.634
  307SOL    HW211256   7.796   8.180   1.526
  308SOL     OW11257   1.536   0.468   0.740
  308SOL    HW111258   1.561   0.386   0.688
  308SOL    HW211259   1.557   0.453   0.837
  309SOL     OW11260   3.722   4.423   0.643
  309SOL    HW111261   3.640   4.368   0.661
  309SOL    HW211262   3.710   4.514   0.684
  310SOL     OW11263   3.805   0.117   2.754
  310SOL    HW111264   3.771   0.085   2.666
  310SOL    HW211265   3.833   0.039   2.810
  311SOL     OW11266   4.141   7.104   1.176
  311SOL    HW111267   4.233   7.089   1.141
  311SOL    HW211268   4.096   7.175   1.122
  312SOL     OW11269   4.536   1.699   1.164
  312SOL    HW111270   4.445   1.708   1.123
  312SOL    HW211271   4.605   1.702   1.092
  313SOL     OW11272   0.121   3.666   1.971
  313SOL    HW111273   0.176   3.668   2.055
  313SOL    HW211274   0.028   3.636   1.993
  314SOL     OW11275   3.838   4.316   3.081
  314SOL    HW111276   3.782   4.292   3.161
  314SOL    HW211277   3.842   4.239   3.018
  315SOL     OW11278   7.884   0.461   0.144
  315SOL    HW111279   7.896   0.560   0.155
  315SOL    HW211280   7.791   0.436   0.172
  316SOL     OW11281   0.681   3.327   1.420
  316SOL    HW111282   0.592   3.373   1.416
  316SOL    HW211283   0.672   3.235   1.382
  317SOL     OW11284   4.989   6.921   2.382
  317SOL    HW111285   5.037   6.906   2.469
  317SOL    HW211286   4.994   7.018   2.357
  318SOL     OW11287   8.661   7.754   0.995
  318SOL    HW111288   8.650   7.824   0.924
  318SOL    HW211289   8.718   7.790   1.069
  319SOL     OW11290   1.206   7.975   1.508
  319SOL    HW111291   1.185   7.909   1.581
  319SOL    HW211292   1.135   8.045   1.505
  320SOL     OW11293   4.929   2.201   1.530
  320SOL    HW111294   4.835   2.168   1.530
  320SOL    HW211295   4.955   2.229   1.438
  321SOL     OW11296   3.946   0.622   1.211
  321SOL    HW111297   4.020   0.589   1.153
  321SOL    HW211298   3.959   0.587   1.304
  322SOL     OW11299   9.096   9.069   2.826
  322SOL    HW111300   9.184   9.032   2.796
  322SOL    HW211301   9.028   8.995   2.826
  323SOL     OW11302   7.201   0.235   3.078
  323SOL    HW111303   7.202   0.148   3.029
  323SOL    HW211304   7.269   0.232   3.152
  324SOL     OW11305   1.696   4.880   2.432
  324SOL    HW111306   1.597   4.887   2.449
  324SOL    HW211307   1.712   4.869   2.334
  325SOL     OW11308   9.641   9.151   2.183
  325SOL    HW111309   9.674   9.115   2.096
  325SOL    HW211310   9.602   9.076   2.238
  326SOL     OW11311   3.528   3.390   2.355
  326SOL    HW111312   3.590   3.312   2.353
  326SOL    HW211313   3.436   3.359   2.379
  327SOL     OW11314   3.897   4.355   1.005
  327SOL    HW111315   3.830   4.283   1.020
  327SOL    HW211316   3.868   4.438   1.053
  328SOL     OW11317   2.447   6.695   2.427
  328SOL    HW111318   2.442   6.716   2.329
  328SOL    HW211319   2.543   6.686   2.454
  329SOL     OW11320   1.813   8.418   1.197
  329SOL    HW111321   1.828   8.491   1.263
  329SOL    HW211322   1.895   8.359   1.193
  330SOL     OW11323   3.132   2.989   2.900
  330SOL    HW111324   3.073   3.022   2.826
  330SOL    HW211325   3.076   2.941   2.968
  331SOL     OW11326   0.127   1.265   2.987
  331SOL    HW111327   0.214   1.229   3.020
  331SOL    HW211328   0.142   1.319   2.904
  332SOL     OW11329   2.286   4.708   1.589
  332SOL    HW111330   2.187   4.701   1.603
  332SOL    HW211331   2.318   4.629   1.536
  333SOL     OW11332   8.845   3.181   0.639
  333SOL    HW111333   8.803   3.253   0.583
  333SOL    HW211334   8.793   3.171   0.724
  334SOL     OW11335   9.607   2.656   1.466
  334SOL    HW111336   9.682   2.716   1.495
  334SOL    HW211337   9.520   2.704   1.476
  335SOL     OW11338   8.138   2.042   2.014
  335SOL    HW111339   8.227   2.011   1.980
  335SOL    HW211340   8.092   1.967   2.061
  336SOL     OW11341   9.028   7.042   2.011
  336SOL    HW111342   8.932   7.023   1.989
  336SOL    HW211343   9.058   6.980   2.084
  337SOL     OW11344   2.192   7.474   0.412
  337SOL    HW111345   2.212   7.544   0.343
  337SOL    HW211346   2.261   7.402   0.406
  338SOL     OW11347   1.454   8.067   1.601
  338SOL    HW111348   1.366   8.041   1.562
  338SOL    HW211349   1.441   8.139   1.668
  339SOL     OW11350   9.686   5.154   2.392
  339SOL    HW111351   9.713   5.199   2.477
  339SOL    HW211352   9.763   5.099   2.358
  340SOL     OW11353   0.465   1.399   0.179
  340SOL    HW111354   0.533   1.458   0.135
  340SOL    HW211355   0.476   1.402   0.278
  341SOL     OW11356   8.660   2.047   0.656
  341SOL    HW111357   8.673   1.978   0.727
  341SOL    HW211358   8.707   2.132   0.683
  342SOL     OW11359   3.429   0.149   2.959
  342SOL    HW111360   3.506   0.206   2.934
  342SOL    HW211361   3.344   0.201   2.948
  343SOL     OW11362   8.466   8.761   1.891
  343SOL    HW111363   8.545   8.702   1.878
  343SOL    HW211364   8.443   8.806   1.805
  344SOL     OW11365   9.166   3.747   1.036
  344SOL    HW111366   9.179   3.733   0.938
  344SOL    HW211367   9.249   3.787   1.075
  345SOL     OW11368   1.469   6.585   0.517
  345SOL    HW111369   1.543   6.555   0.456
  345SOL    HW211370   1.448   6.513   0.582
  346SOL     OW11371   3.219   3.222   0.666
  346SOL    HW111372   3.180   3.308   0.633
  346SOL    HW211373   3.242   3.164   0.589
  347SOL     OW11374   2.487   8.678   0.333
  347SOL    HW111375   2.422   8.620   0.285
  347SOL    HW211376   2.482   8.771   0.298
  348SOL     OW11377   2.902   0.761   2.830
  348SOL    HW111378   2.954   0.699   2.771
  348SOL    HW211379   2.914   0.855   2.799
  349SOL     OW11380   3.362   7.700   2.601
  349SOL    HW111381   3.366   7.791   2.560
  349SOL    HW211382   3.448   7.683   2.651
  350SOL     OW11383   4.080   9.231   0.705
  350SOL    HW111384   4.075   9.315   0.758
  350SOL    HW211385   4.041   9.156   0.758
  351SOL     OW11386   4.290   9.725   2.912
  351SOL    HW111387   4.380   9.763   2.890
  351SOL    HW211388   4.259   9.666   2.838
  352SOL     OW11389   8.909   2.146   0.367
  352SOL    HW111390   8.920   2.225   0.427
  352SOL    HW211391   8.823   2.155   0.316
  353SOL     OW11392   1.608   9.984   1.760
  353SOL    HW111393   1.703   9.972   1.788
  353SOL    HW211394   1.549   9.921   1.811
  354SOL     OW11395   2.638   8.402   0.650
  354SOL    HW111396   2.635   8.384   0.552
  354SOL    HW211397   2.711   8.467   0.670
  355SOL     OW11398   0.532   1.332   1.241
  355SOL    HW111399   0.594   1.284   1.179
  355SOL    HW211400   0.549   1.430   1.236
  356SOL     OW11401   3.769   9.805   2.040
  356SOL    HW111402   3.779   9.798   1.940
  356SOL    HW211403   3.728   9.721   2.075
  357SOL     OW11404   9.550   3.140   2.405
  357SOL    HW111405   9.545   3.151   2.306
  357SOL    HW211406   9.645   3.150   2.435
  358SOL     OW11407   3.306   9.282   1.656
  358SOL    HW111408   3.339   9.208   1.715
  358SOL    HW211409   3.209   9.298   1.675
  359SOL     OW11410   8.168   3.888   1.112
  359SOL    HW111411   8.164   3.804   1.167
  359SOL    HW211412   8.115   3.960   1.157
  360SOL     OW11413   9.472   7.640   0.805
  360SOL    HW111414   9.453   7.542   0.814
  360SOL    HW211415   9.533   7.655   0.727
  361SOL     OW11416   0.927   8.435   0.555
  361SOL    HW111417   0.964   8.348   0.589
  361SOL    HW211418   0.859   8.470   0.619
  362SOL     OW11419   8.970   4.398   2.260
  362SOL    HW111420   9.063   4.374   2.287
  362SOL    HW211421   8.965   4.404   2.160
  363SOL     OW11422   4.495   5.262   2.244
  363SOL    HW111423   4.423   5.220   2.188
  363SOL    HW211424   4.455   5.337   2.297
  364SOL     OW11425   9.365   2.455   2.592
  364SOL    HW111426   9.344   2.408   2.678
  364SOL    HW211427   9.464   2.466   2.584
  365SOL     OW11428   7.036   8.958   2.251
  365SOL    HW111429   7.057   8.909   2.336
  365SOL    HW211430   6.993   9.045   2.273
  366SOL     OW11431   9.177   4.921   2.509
  366SOL    HW111432   9.264   4.951   2.472
  366SOL    HW211433   9.117   4.999   2.522
  367SOL     OW11434   1.044   4.933   1.119
  367SOL    HW111435   0.963   4.989   1.100
  367SOL    HW211436   1.074   4.949   1.213
  368SOL     OW11437   3.027   6.348   3.016
  368SOL    HW111438   3.121   6.335   3.046
  368SOL    HW211439   2.998   6.270   2.961
  369SOL     OW11440   8.268   0.217   1.791
  369SOL    HW111441   8.304   0.124   1.793
  369SOL    HW211442   8.175   0.218   1.828
  370SOL     OW11443   0.471   5.732   2.492
  370SOL    HW111444   0.399   5.780   2.542
  370SOL    HW211445   0.464   5.753   2.395
  371SOL     OW11446   2.689   8.974   1.399
  371SOL    HW111447   2.613   9.039   1.395
  371SOL    HW211448   2.673   8.907   1.471
  372SOL     OW11449   7.435   9.837   2.295
  372SOL    HW111450   7.445   9.880   2.385
  372SOL    HW211451   7.518   9.788   2.271
  373SOL     OW11452   9.229   9.320   2.839
  373SOL    HW111453   9.171   9.238   2.835
  373SOL    HW211454   9.325   9.293   2.831
  374SOL     OW11455   9.080   6.685   1.019
  374SOL    HW111456   9.087   6.588   0.998
  374SOL    HW211457   9.109   6.701   1.113
  375SOL     OW11458   3.880   4.264   2.578
  375SOL    HW111459   3.903   4.351   2.622
  375SOL    HW211460   3.944   4.194   2.607
  376SOL     OW11461   0.483   6.805   0.469
  376SOL    HW111462   0.393   6.781   0.433
  376SOL    HW211463   0.515   6.734   0.531
  377SOL     OW11464   5.053   1.999   0.927
  377SOL    HW111465   5.029   2.086   0.971
  377SOL    HW211466   5.005   1.924   0.974
  378SOL     OW11467   0.757   8.567   0.730
  378SOL    HW111468   0.844   8.597   0.769
  378SOL    HW211469   0.699   8.647   0.715
  379SOL     OW11470   8.076   0.965   0.145
  379SOL    HW111471   8.078   0.929   0.051
  379SOL    HW211472   8.008   0.915   0.198
  380SOL     OW11473   8.856   5.437   2.138
  380SOL    HW111474   8.821   5.521   2.180
  380SOL    HW211475   8.941   5.457   2.088
  381SOL     OW11476   8.033   6.468   1.972
  381SOL    HW111477   7.986   6.398   1.918
  381SOL    HW211478   8.125   6.435   1.995
  382SOL     OW11479   0.734   5.868   1.162
  382SOL    HW111480   0.772   5.927   1.234
  382SOL    HW211481   0.663   5.919   1.112
  383SOL     OW11482   3.909   9.228   0.490
  383SOL    HW111483   3.974   9.248   0.563
  383SOL    HW211484   3.869   9.138   0.504
  384SOL     OW11485   3.727   4.140   1.044
  384SOL    HW111486   3.692   4.127   0.951
  384SOL    HW211487   3.652   4.130   1.109
  385SOL     OW11488   3.771   8.973   1.046
  385SOL    HW111489   3.708   8.897   1.057
  385SOL    HW211490   3.814   8.993   1.134
  386SOL     OW11491   8.872   1.273   0.168
  386SOL    HW111492   8.912   1.184   0.146
  386SOL    HW211493   8.942   1.344   0.158
  387SOL     OW11494   8.294   5.197   1.954
  387SOL    HW111495   8.306   5.140   2.035
  387SOL    HW211496   8.322   5.291   1.975
  388SOL     OW11497   6.045   8.686   1.920
  388SOL    HW111498   6.079   8.663   1.829
  388SOL    HW211499   5.960   8.635   1.937
  389SOL     OW11500   1.809   1.799   0.566
  389SOL    HW111501   1.902   1.787   0.530
  389SOL    HW211502   1.808   1.877   0.629
  390SOL     OW11503   2.577   4.163   1.333
  390SOL    HW111504   2.513   4.150   1.257
  390SOL    HW211505   2.531   4.144   1.419
  391SOL     OW11506   9.401   3.856   1.124
  391SOL    HW111507   9.415   3.871   1.222
  391SOL    HW211508   9.392   3.944   1.077
  392SOL     OW11509   1.470   4.742   2.891
  392SOL    HW111510   1.463   4.705   2.798
  392SOL    HW211511   1.412   4.823   2.898
  393SOL     OW11512   9.620   4.929   1.973
  393SOL    HW111513   9.572   4.936   1.885
  393SOL    HW211514   9.618   4.833   2.003
  394SOL     OW11515   8.346   1.490   1.539
  394SOL    HW111516   8.271   1.549   1.568
  394SOL    HW211517   8.332   1.398   1.577
  395SOL     OW11518   7.749   8.107   0.182
  395SOL    HW111519   7.782   8.014   0.161
  395SOL    HW211520   7.826   8.171   0.179
  396SOL     OW11521   3.080   9.421   0.248
  396SOL    HW111522   2.990   9.390   0.276
  396SOL    HW211523   3.133   9.344   0.212
  397SOL     OW11524   8.734   5.411   0.513
  397SOL    HW111525   8.719   5.408   0.612
  397SOL    HW211526   8.790   5.333   0.486
  398SOL     OW11527   1.433   5.829   2.226
  398SOL    HW111528   1.482   5.820   2.139
  398SOL    HW211529   1.490   5.877   2.292
  399SOL     OW11530   5.681   7.587   2.621
  399SOL    HW111531   5.763   7.629   2.659
  399SOL    HW211532   5.627   7.656   2.573
  400SOL     OW11533   4.000   9.698   1.487
  400SOL    HW111534   4.019   9.752   1.569
  400SOL    HW211535   4.025   9.751   1.406
  401SOL     OW11536   2.395   4.605   0.497
  401SOL    HW111537   2.436   4.681   0.547
  401SOL    HW211538   2.305   4.585   0.534
  402SOL     OW11539   3.030   7.923   1.211
  402SOL    HW111540   2.959   7.857   1.186
  402SOL    HW211541   3.103   7.920   1.142
  403SOL     OW11542   2.711   3.250   1.381
  403SOL    HW111543   2.707   3.175   1.447
  403SOL    HW211544   2.641   3.238   1.312
  404SOL     OW11545   8.387   4.490   1.064
  404SOL    HW111546   8.465   4.541   1.099
  404SOL    HW211547   8.352   4.534   0.981
  405SOL     OW11548   0.679   4.983   2.867
  405SOL    HW111549   0.655   5.029   2.953
  405SOL    HW211550   0.769   4.940   2.876
  406SOL     OW11551   4.193   1.121   0.939
  406SOL    HW111552   4.160   1.130   0.844
  406SOL    HW211553   4.261   1.191   0.957
  407SOL     OW11554   3.259   3.287   0.112
  407SOL    HW111555   3.341   3.270   0.166
  407SOL    HW211556   3.252   3.218   0.040
  408SOL     OW11557   4.731   9.716   0.849
  408SOL    HW111558   4.692   9.724   0.940
  408SOL    HW211559   4.813   9.658   0.853
  409SOL     OW11560   3.099   1.915   1.255
  409SOL    HW111561   3.019   1.868   1.219
  409SOL    HW211562   3.149   1.959   1.180
  410SOL     OW11563   3.295   8.194   1.485
  410SOL    HW111564   3.338   8.236   1.405
  410SOL    HW211565   3.201   8.168   1.462
  411SOL     OW11566   0.314   6.390   2.799
  411SOL    HW111567   0.232   6.336   2.815
  411SOL    HW211568   0.358   6.410   2.887
  412SOL     OW11569   0.267   4.996   2.232
  412SOL    HW111570   0.291   4.974   2.327
  412SOL    HW211571   0.293   4.919   2.173
  413SOL     OW11572   1.710   8.047   2.838
  413SOL    HW111573   1.691   8.137   2.800
  413SOL    HW211574   1.722   8.053   2.937
  414SOL     OW11575   9.641   2.037   0.921
  414SOL    HW111576   9.683   1.949   0.945
  414SOL    HW211577   9.547   2.021   0.890
  415SOL     OW11578   3.295   1.443   2.561
  415SOL    HW111579   3.265   1.427   2.467
  415SOL    HW211580   3.389   1.411   2.571
  416SOL     OW11581   0.326   9.657   0.107
  416SOL    HW111582   0.382   9.663   0.190
  416SOL    HW211583   0.243   9.712   0.119
  417SOL     OW11584   0.167   7.940   0.192
  417SOL    HW111585   0.230   7.874   0.153
  417SOL    HW211586   0.211   8.029   0.199
  418SOL     OW11587   8.905   4.348   2.798
  418SOL    HW111588   8.927   4.331   2.702
  418SOL    HW211589   8.843   4.277   2.831
  419SOL     OW11590   3.355   7.510   0.211
  419SOL    HW111591   3.291   7.463   0.151
  419SOL    HW211592   3.323   7.603   0.228
  420SOL     OW11593   2.101   4.410   1.476
  420SOL    HW111594   2.070   4.357   1.397
  420SOL    HW211595   2.198   4.432   1.466
  421SOL     OW11596   0.890   8.728   2.257
  421SOL    HW111597   0.828   8.784   2.311
  421SOL    HW211598   0.865   8.632   2.265
  422SOL     OW11599   2.284   6.366   2.387
  422SOL    HW111600   2.215   6.387   2.456
  422SOL    HW211601   2.267   6.420   2.304
  423SOL     OW11602   1.449   6.003   1.847
  423SOL    HW111603   1.524   6.040   1.793
  423SOL    HW211604   1.369   5.990   1.789
  424SOL     OW11605   2.192   0.918   0.028
  424SOL    HW111606   2.253   0.985   0.069
  424SOL    HW211607   2.181   0.938   3.971
  425SOL     OW11608   9.548   1.318   1.162
  425SOL    HW111609   9.468   1.270   1.126
  425SOL    HW211610   9.519   1.403   1.207
  426SOL     OW11611   9.444   2.412   0.334
  426SOL    HW111612   9.531   2.437   0.376
  426SOL    HW211613   9.394   2.496   0.310
  427SOL     OW11614   5.529   7.804   2.529
  427SOL    HW111615   5.562   7.898   2.532
  427SOL    HW211616   5.468   7.788   2.607
  428SOL     OW11617   4.124   9.448   1.856
  428SOL    HW111618   4.048   9.411   1.803
  428SOL    HW211619   4.104   9.439   1.954
  429SOL     OW11620   8.170   5.084   1.738
  429SOL    HW111621   8.221   5.109   1.655
  429SOL    HW211622   8.210   5.131   1.817
  430SOL     OW11623   8.291   8.668   2.079
  430SOL    HW111624   8.345   8.707   2.005
  430SOL    HW211625   8.194   8.680   2.060
  431SOL     OW11626   8.527   2.859   1.464
  431SOL    HW111627   8.520   2.792   1.539
  431SOL    HW211628   8.488   2.946   1.494
  432SOL     OW11629   3.575   7.959   2.782
  432SOL    HW111630   3.598   8.022   2.708
  432SOL    HW211631   3.479   7.971   2.807
  433SOL     OW11632   1.338   4.363   2.683
  433SOL    HW111633   1.258   4.401   2.728
  433SOL    HW211634   1.392   4.310   2.749
  434SOL     OW11635   4.956   8.174   0.803
  434SOL    HW111636   4.885   8.167   0.873
  434SOL    HW211637   4.982   8.083   0.772
  435SOL     OW11638   1.149   1.093   3.053
  435SOL    HW111639   1.219   1.026   3.080
  435SOL    HW211640   1.140   1.092   2.953
  436SOL     OW11641   3.782   1.925   3.068
  436SOL    HW111642   3.700   1.917   3.011
  436SOL    HW211643   3.803   2.021   3.084
  437SOL     OW11644   7.345   8.677   1.980
  437SOL    HW111645   7.256   8.646   1.948
  437SOL    HW211646   7.334   8.730   2.064
  438SOL     OW11647   2.393   9.960   0.421
  438SOL    HW111648   2.315   0.022   0.407
  438SOL    HW211649   2.365   9.866   0.400
  439SOL     OW11650   2.575   9.623   0.273
  439SOL    HW111651   2.634   9.637   0.194
  439SOL    HW211652   2.582   9.528   0.303
  440SOL     OW11653   8.741   6.662   2.433
  440SOL    HW111654   8.654   6.652   2.481
  440SOL    HW211655   8.726   6.707   2.345
  441SOL     OW11656   2.202   1.660   1.380
  441SOL    HW111657   2.296   1.629   1.391
  441SOL    HW211658   2.159   1.611   1.304
  442SOL     OW11659   2.546   0.163   3.042
  442SOL    HW111660   2.630   0.206   3.078
  442SOL    HW211661   2.571   0.093   2.976
  443SOL     OW11662   8.630   9.114   1.225
  443SOL    HW111663   8.598   9.138   1.134
  443SOL    HW211664   8.679   9.026   1.221
  444SOL     OW11665   2.875   4.712   0.179
  444SOL    HW111666   2.965   4.753   0.195
  444SOL    HW211667   2.887   4.621   0.138
  445SOL     OW11668   3.608   9.155   1.926
  445SOL    HW111669   3.542   9.104   1.871
  445SOL    HW211670   3.580   9.251   1.932
  446SOL     OW11671   4.844   3.332   0.905
  446SOL    HW111672   4.807   3.407   0.850
  446SOL    HW211673   4.808   3.245   0.871
  447SOL     OW11674   0.553   2.086   1.322
  447SOL    HW111675   0.542   2.057   1.227
  447SOL    HW211676   0.612   2.166   1.326
  448SOL     OW11677   4.035   9.768   0.515
  448SOL    HW111678   4.132   9.753   0.534
  448SOL    HW211679   3.980   9.709   0.574
  449SOL     OW11680   1.518   1.136   0.364
  449SOL    HW111681   1.510   1.038   0.345
  449SOL    HW211682   1.516   1.150   0.463
  450SOL     OW11683   0.235   9.333   0.294
  450SOL    HW111684   0.285   9.335   0.207
  450SOL    HW211685   0.293   9.370   0.367
  451SOL     OW11686   3.227   1.978   1.636
  451SOL    HW111687   3.206   2.049   1.703
  451SOL    HW211688   3.284   2.017   1.564
  452SOL     OW11689   4.470   6.323   2.732
  452SOL    HW111690   4.473   6.366   2.822
  452SOL    HW211691   4.463   6.393   2.661
  453SOL     OW11692   4.052   9.324   1.082
  453SOL    HW111693   4.024   9.290   1.172
  453SOL    HW211694   4.121   9.262   1.043
  454SOL     OW11695   0.996   2.831   2.229
  454SOL    HW111696   0.934   2.753   2.237
  454SOL    HW211697   1.007   2.854   2.132
  455SOL     OW11698   9.475   1.591   2.835
  455SOL    HW111699   9.533   1.627   2.762
  455SOL    HW211700   9.466   1.491   2.824
  456SOL     OW11701   2.079   4.935   0.870
  456SOL    HW111702   2.156   4.943   0.806
  456SOL    HW211703   2.111   4.900   0.958
  457SOL     OW11704   9.076   4.044   1.112
  457SOL    HW111705   9.166   4.041   1.068
  457SOL    HW211706   9.075   3.981   1.190
  458SOL     OW11707   8.454   2.241   0.278
  458SOL    HW111708   8.375   2.300   0.262
  458SOL    HW211709   8.455   2.211   0.374
  459SOL     OW11710   4.971   0.362   1.656
  459SOL    HW111711   4.970   0.268   1.623
  459SOL    HW211712   4.901   0.415   1.607
  460SOL     OW11713   2.635   8.785   1.589
  460SOL    HW111714   2.581   8.817   1.667
  460SOL    HW211715   2.581   8.721   1.535
  461SOL     OW11716   8.028   8.976   1.155
  461SOL    HW111717   8.037   8.952   1.059
  461SOL    HW211718   7.954   9.043   1.166
  462SOL     OW11719   0.757   5.241   1.794
  462SOL    HW111720   0.794   5.223   1.885
  462SOL    HW211721   0.824   5.212   1.725
  463SOL     OW11722   9.984   7.850   2.630
  463SOL    HW111723   9.966   7.760   2.592
  463SOL    HW211724   9.904   7.909   2.615
  464SOL     OW11725   7.203   0.037   2.577
  464SOL    HW111726   7.146   9.979   2.635
  464SOL    HW211727   7.290   9.992   2.559
  465SOL     OW11728   9.018   5.733   0.978
  465SOL    HW111729   9.009   5.667   0.904
  465SOL    HW211730   8.929   5.747   1.021
  466SOL     OW11731   0.709   9.974   2.537
  466SOL    HW111732   0.792   9.933   2.498
  466SOL    HW211733   0.670   9.912   2.604
  467SOL     OW11734   9.828   3.798   1.070
  467SOL    HW111735   9.814   3.703   1.040
  467SOL    HW211736   9.788   3.809   1.162
  468SOL     OW11737   2.834   7.736   1.103
  468SOL    HW111738   2.762   7.797   1.072
  468SOL    HW211739   2.797   7.670   1.168
  469SOL     OW11740   4.569   2.540   1.571
  469SOL    HW111741   4.492   2.478   1.583
  469SOL    HW211742   4.540   2.633   1.593
  470SOL     OW11743   7.354   9.535   2.187
  470SOL    HW111744   7.290   9.609   2.167
  470SOL    HW211745   7.445   9.573   2.205
  471SOL     OW11746   2.442   3.595   1.821
  471SOL    HW111747   2.381   3.543   1.762
  471SOL    HW211748   2.527   3.615   1.773
  472SOL     OW11749   8.882   0.116   1.515
  472SOL    HW111750   8.937   0.083   1.592
  472SOL    HW211751   8.852   0.038   1.460
  473SOL     OW11752   4.170   3.107   2.329
  473SOL    HW111753   4.150   3.205   2.324
  473SOL    HW211754   4.246   3.086   2.267
  474SOL     OW11755   0.162   3.390   2.893
  474SOL    HW111756   0.249   3.355   2.929
  474SOL    HW211757   0.096   3.399   2.968
  475SOL     OW11758   2.715   3.960   2.878
  475SOL    HW111759   2.792   3.896   2.877
  475SOL    HW211760   2.721   4.018   2.959
  476SOL     OW11761   3.654   4.411   0.375
  476SOL    HW111762   3.686   4.410   0.470
  476SOL    HW211763   3.626   4.319   0.348
  477SOL     OW11764   4.199   3.712   0.486
  477SOL    HW111765   4.182   3.764   0.570
  477SOL    HW211766   4.127   3.734   0.419
  478SOL     OW11767   9.215   4.420   2.409
  478SOL    HW111768   9.212   4.518   2.389
  478SOL    HW211769   9.146   4.397   2.478
  479SOL     OW11770   2.692   5.928   1.628
  479SOL    HW111771   2.728   5.835   1.621
  479SOL    HW211772   2.681   5.967   1.536
  480SOL     OW11773   2.277   6.265   1.069
  480SOL    HW111774   2.306   6.265   1.165
  480SOL    HW211775   2.324   6.193   1.020
  481SOL     OW11776   3.846   4.675   2.132
  481SOL    HW111777   3.910   4.704   2.061
  481SOL    HW211778   3.763   4.638   2.090
  482SOL     OW11779   1.119   2.651   0.800
  482SOL    HW111780   1.170   2.611   0.724
  482SOL    HW211781   1.168   2.636   0.886
  483SOL     OW11782   4.299   2.715   2.712
  483SOL    HW111783   4.339   2.797   2.671
  483SOL    HW211784   4.208   2.736   2.747
  484SOL     OW11785   1.520   8.412   1.406
  484SOL    HW111786   1.421   8.423   1.416
  484SOL    HW211787   1.565   8.501   1.420
  485SOL     OW11788   1.206   3.079   2.091
  485SOL    HW111789   1.158   3.101   2.175
  485SOL    HW211790   1.148   3.021   2.033
  486SOL     OW11791   2.079   3.375   3.094
  486SOL    HW111792   2.149   3.439   3.062
  486SOL    HW211793   2.114   3.281   3.085
  487SOL     OW11794   3.731   2.331   2.139
  487SOL    HW111795   3.769   2.240   2.150
  487SOL    HW211796   3.631   2.327   2.144
  488SOL     OW11797   1.155   5.626   0.093
  488SOL    HW111798   1.062   5.664   0.095
  488SOL    HW211799   1.221   5.701   0.087
  489SOL     OW11800   1.897   6.013   2.314
  489SOL    HW111801   1.981   6.047   2.271
  489SOL    HW211802   1.917   5.928   2.363
  490SOL     OW11803   2.736   3.338   1.949
  490SOL    HW111804   2.755   3.336   1.851
  490SOL    HW211805   2.659   3.277   1.969
  491SOL     OW11806   8.469   6.679   2.121
  491SOL    HW111807   8.413   6.619   2.178
  491SOL    HW211808   8.414   6.714   2.046
  492SOL     OW11809   6.044   9.232   2.514
  492SOL    HW111810   6.074   9.241   2.419
  492SOL    HW211811   5.985   9.151   2.522
  493SOL     OW11812   8.490   0.073   1.555
  493SOL    HW111813   8.403   0.061   1.508
  493SOL    HW211814   8.539   0.150   1.514
  494SOL     OW11815   4.486   8.738   1.110
  494SOL    HW111816   4.411   8.717   1.048
  494SOL    HW211817   4.540   8.655   1.126
  495SOL     OW11818   5.129   2.372   1.837
  495SOL    HW111819   5.073   2.411   1.764
  495SOL    HW211820   5.224   2.369   1.808
  496SOL     OW11821   8.850   0.022   2.609
  496SOL    HW111822   8.881   0.083   2.536
  496SOL    HW211823   8.923   0.013   2.678
  497SOL     OW11824   5.025   6.854   2.679
  497SOL    HW111825   5.041   6.815   2.769
  497SOL    HW211826   4.989   6.784   2.618
  498SOL     OW11827   4.012   6.101   2.583
  498SOL    HW111828   3.935   6.165   2.588
  498SOL    HW211829   4.092   6.142   2.626
  499SOL     OW11830   1.892   4.551   1.892
  499SOL    HW111831   1.886   4.649   1.874
  499SOL    HW211832   1.919   4.536   1.987
  500SOL     OW11833   9.351   3.656   0.407
  500SOL    HW111834   9.331   3.735   0.466
  500SOL    HW211835   9.381   3.688   0.318
  501SOL     OW11836   9.938   1.159   1.288
  501SOL    HW111837   9.856   1.116   1.325
  501SOL    HW211838   0.019   1.118   1.330
  502SOL     OW11839   3.395   7.038   2.965
  502SOL    HW111840   3.339   7.034   2.882
  502SOL    HW211841   3.462   6.964   2.963
  503SOL     OW11842   9.103   3.382   0.170
  503SOL    HW111843   9.202   3.369   0.159
  503SOL    HW211844   9.060   3.294   0.188
  504SOL     OW11845   1.649   6.942   1.797
  504SOL    HW111846   1.736   6.895   1.811
  504SOL    HW211847   1.652   6.992   1.710
  505SOL     OW11848   0.402   8.249   0.481
  505SOL    HW111849   0.462   8.328   0.468
  505SOL    HW211850   0.308   8.279   0.491
  506SOL     OW11851   9.555   7.764   2.637
  506SOL    HW111852   9.626   7.832   2.620
  506SOL    HW211853   9.466   7.800   2.608
  507SOL     OW11854   2.769   3.168   0.287
  507SOL    HW111855   2.820   3.241   0.331
  507SOL    HW211856   2.798   3.079   0.325
  508SOL     OW11857   3.949   7.168   2.999
  508SOL    HW111858   3.884   7.193   3.071
  508SOL    HW211859   3.900   7.150   2.914
  509SOL     OW11860   3.120   3.975   1.888
  509SOL    HW111861   3.093   3.890   1.932
  509SOL    HW211862   3.139   3.958   1.791
  510SOL     OW11863   7.105   8.578   1.892
  510SOL    HW111864   7.017   8.587   1.940
  510SOL    HW211865   7.103   8.634   1.809
  511SOL     OW11866   1.082   0.058   0.157
  511SOL    HW111867   1.053   9.962   0.151
  511SOL    HW211868   1.104   0.080   0.252
  512SOL     OW11869   1.193   5.144   0.998
  512SOL    HW111870   1.143   5.072   1.046
  512SOL    HW211871   1.143   5.170   0.915
  513SOL     OW11872   9.827   0.448   2.292
  513SOL    HW111873   9.819   0.353   2.324
  513SOL    HW211874   9.829   0.449   2.192
  514SOL     OW11875   1.146   7.743   0.783
  514SOL    HW111876   1.223   7.806   0.790
  514SOL    HW211877   1.172   7.665   0.725
  515SOL     OW11878   1.924   9.041   1.010
  515SOL    HW111879   1.941   9.075   1.103
  515SOL    HW211880   2.001   8.983   0.982
  516SOL     OW11881   5.016   0.175   2.990
  516SOL    HW111882   5.072   0.196   3.070
  516SOL    HW211883   5.054   0.096   2.942
  517SOL     OW11884   0.074   5.335   0.469
  517SOL    HW111885   0.018   5.259   0.437
  517SOL    HW211886   0.119   5.377   0.390
  518SOL     OW11887   8.702   3.363   2.024
  518SOL    HW111888   8.758   3.365   1.941
  518SOL    HW211889   8.615   3.409   2.008
  519SOL     OW11890   7.528   7.417   2.561
  519SOL    HW111891   7.563   7.411   2.654
  519SOL    HW211892   7.540   7.329   2.515
  520SOL     OW11893   8.720   4.159   2.896
  520SOL    HW111894   8.753   4.087   2.957
  520SOL    HW211895   8.668   4.118   2.821
  521SOL     OW11896   6.968   9.454   2.748
  521SOL    HW111897   6.879   9.488   2.780
  521SOL    HW211898   7.039   9.483   2.812
  522SOL     OW11899   2.358   8.585   2.907
  522SOL    HW111900   2.434   8.616   2.965
  522SOL    HW211901   2.335   8.657   2.842
  523SOL     OW11902   3.336   9.459   2.209
  523SOL    HW111903   3.398   9.455   2.288
  523SOL    HW211904   3.260   9.397   2.224
  524SOL     OW11905   3.022   3.570   2.214
  524SOL    HW111906   2.948   3.561   2.281
  524SOL    HW211907   3.037   3.482   2.169
  525SOL     OW11908   9.036   1.480   0.516
  525SOL    HW111909   9.043   1.424   0.598
  525SOL    HW211910   9.123   1.477   0.466
  526SOL     OW11911   2.955   9.961   0.145
  526SOL    HW111912   3.034   0.018   0.168
  526SOL    HW211913   2.986   9.872   0.112
  527SOL     OW11914   2.022   6.617   1.515
  527SOL    HW111915   1.989   6.530   1.552
  527SOL    HW211916   1.945   6.672   1.484
  528SOL     OW11917   1.414   5.994   0.974
  528SOL    HW111918   1.506   5.958   0.956
  528SOL    HW211919   1.346   5.926   0.948
  529SOL     OW11920   9.737   2.205   1.115
  529SOL    HW111921   9.697   2.296   1.102
  529SOL    HW211922   9.704   2.143   1.045
  530SOL     OW11923   6.279   9.159   2.979
  530SOL    HW111924   6.293   9.060   2.982
  530SOL    HW211925   6.333   9.198   2.905
  531SOL     OW11926   4.820   0.073   1.297
  531SOL    HW111927   4.812   0.171   1.277
  531SOL    HW211928   4.738   0.025   1.263
  532SOL     OW11929   2.736   0.478   0.403
  532SOL    HW111930   2.788   0.399   0.434
  532SOL    HW211931   2.718   0.470   0.305
  533SOL     OW11932   9.239   0.248   0.765
  533SOL    HW111933   9.200   0.337   0.785
  533SOL    HW211934   9.167   0.178   0.770
  534SOL     OW11935   5.020   9.348   3.044
  534SOL    HW111936   5.095   9.294   3.082
  534SOL    HW211937   5.055   9.404   2.968
  535SOL     OW11938   4.953   9.795   2.022
  535SOL    HW111939   5.038   9.783   2.073
  535SOL    HW211940   4.906   9.707   2.015
  536SOL     OW11941   3.023   4.755   2.366
  536SOL    HW111942   2.939   4.702   2.357
  536SOL    HW211943   3.075   4.722   2.446
  537SOL     OW11944   1.092   7.655   1.974
  537SOL    HW111945   1.098   7.590   2.049
  537SOL    HW211946   1.167   7.721   1.980
  538SOL     OW11947   8.812   9.826   2.133
  538SOL    HW111948   8.762   9.906   2.164
  538SOL    HW211949   8.751   9.768   2.079
  539SOL     OW11950   2.044   1.353   2.224
  539SOL    HW111951   1.994   1.378   2.307
  539SOL    HW211952   2.090   1.266   2.239
  540SOL     OW11953   0.245   3.673   2.211
  540SOL    HW111954   0.300   3.744   2.256
  540SOL    HW211955   0.226   3.600   2.276
  541SOL     OW11956   1.687   7.847   0.193
  541SOL    HW111957   1.709   7.789   0.272
  541SOL    HW211958   1.772   7.883   0.154
  542SOL     OW11959   5.005   7.191   2.343
  542SOL    HW111960   4.933   7.232   2.399
  542SOL    HW211961   4.994   7.220   2.248
  543SOL     OW11962   2.916   2.326   2.357
  543SOL    HW111963   2.917   2.405   2.419
  543SOL    HW211964   2.997   2.330   2.298
  544SOL     OW11965   0.265   6.529   0.470
  544SOL    HW111966   0.240   6.619   0.434
  544SOL    HW211967   0.278   6.536   0.569
  545SOL     OW11968   0.619   1.468   2.000
  545SOL    HW111969   0.632   1.525   2.081
  545SOL    HW211970   0.582   1.379   2.027
  546SOL     OW11971   4.661   0.196   2.622
  546SOL    HW111972   4.747   0.223   2.665
  546SOL    HW211973   4.657   0.235   2.530
  547SOL     OW11974   6.021   8.930   2.050
  547SOL    HW111975   5.983   8.897   2.137
  547SOL    HW211976   6.043   8.851   1.991
  548SOL     OW11977   1.132   9.758   1.980
  548SOL    HW111978   1.203   9.689   1.967
  548SOL    HW211979   1.042   9.715   1.969
  549SOL     OW11980   9.468   9.727   1.313
  549SOL    HW111981   9.377   9.694   1.339
  549SOL    HW211982   9.462   9.822   1.285
  550SOL     OW11983   8.821   9.098   0.349
  550SOL    HW111984   8.832   9.129   0.255
  550SOL    HW211985   8.738   9.042   0.356
  551SOL     OW11986   1.907   9.425   1.097
  551SOL    HW111987   1.858   9.510   1.077
  551SOL    HW211988   1.918   9.372   1.013
  552SOL     OW11989   6.874   9.620   2.272
  552SOL    HW111990   6.942   9.638   2.344
  552SOL    HW211991   6.912   9.556   2.206
  553SOL     OW11992   9.191   0.613   2.922
  553SOL    HW111993   9.210   0.539   2.986
  553SOL    HW211994   9.136   0.683   2.967
  554SOL     OW11995   3.844   3.842   2.081
  554SOL    HW111996   3.923   3.825   2.022
  554SOL    HW211997   3.762   3.851   2.025
  555SOL     OW11998   4.947   8.355   0.168
  555SOL    HW111999   4.848   8.362   0.181
  555SOL    HW212000   4.969   8.266   0.128
  556SOL     OW12001   2.918   5.913   3.104
  556SOL    HW112002   2.975   5.913   3.187
  556SOL    HW212003   2.892   5.819   3.082
  557SOL     OW12004   7.817   2.866   0.263
  557SOL    HW112005   7.768   2.938   0.312
  557SOL    HW212006   7.906   2.900   0.234
  558SOL     OW12007   3.587   2.373   2.455
  558SOL    HW112008   3.539   2.436   2.515
  558SOL    HW212009   3.676   2.412   2.430
  559SOL     OW12010   2.457   3.017   1.731
  559SOL    HW112011   2.473   3.044   1.826
  559SOL    HW212012   2.439   2.918   1.727
  560SOL     OW12013   3.607   3.931   0.364
  560SOL    HW112014   3.644   3.932   0.457
  560SOL    HW212015   3.569   3.840   0.345
  561SOL     OW12016   9.257   5.295   2.611
  561SOL    HW112017   9.170   5.248   2.594
  561SOL    HW212018   9.325   5.228   2.643
  562SOL     OW12019   9.263   7.713   0.645
  562SOL    HW112020   9.279   7.660   0.561
  562SOL    HW212021   9.334   7.692   0.712
  563SOL     OW12022   9.800   5.124   2.005
  563SOL    HW112023   9.887   5.084   2.033
  563SOL    HW212024   9.731   5.052   1.999
  564SOL     OW12025   3.314   3.877   0.939
  564SOL    HW112026   3.413   3.870   0.923
  564SOL    HW212027   3.298   3.925   1.026
  565SOL     OW12028   3.295   0.929   2.010
  565SOL    HW112029   3.378   0.946   2.063
  565SOL    HW212030   3.216   0.966   2.058
  566SOL     OW12031   4.010   7.787   1.253
  566SOL    HW112032   4.094   7.742   1.284
  566SOL    HW212033   3.935   7.763   1.314
  567SOL     OW12034   8.894   1.596   2.586
  567SOL    HW112035   8.810   1.543   2.593
  567SOL    HW212036   8.949   1.582   2.668
  568SOL     OW12037   9.767   2.444   1.873
  568SOL    HW112038   9.771   2.380   1.796
  568SOL    HW212039   9.779   2.537   1.839
  569SOL     OW12040   0.813   8.496   0.312
  569SOL    HW112041   0.857   8.579   0.278
  569SOL    HW212042   0.859   8.466   0.396
  570SOL     OW12043   1.693   8.269   1.854
  570SOL    HW112044   1.740   8.301   1.936
  570SOL    HW212045   1.750   8.286   1.774
  571SOL     OW12046   0.798   2.541   1.314
  571SOL    HW112047   0.862   2.566   1.241
  571SOL    HW212048   0.783   2.442   1.312
  572SOL     OW12049   3.298   6.333   3.063
  572SOL    HW112050   3.320   6.239   3.037
  572SOL    HW212051   3.324   6.395   2.989
  573SOL     OW12052   0.086   8.526   0.646
  573SOL    HW112053   0.029   8.600   0.681
  573SOL    HW212054   0.180   8.539   0.678
  574SOL     OW12055   2.374   6.319   3.039
  574SOL    HW112056   2.414   6.228   3.052
  574SOL    HW212057   2.290   6.327   3.093
  575SOL     OW12058   1.872   8.784   2.058
  575SOL    HW112059   1.863   8.722   1.981
  575SOL    HW212060   1.924   8.865   2.030
  576SOL     OW12061   4.233   1.157   2.449
  576SOL    HW112062   4.171   1.228   2.415
  576SOL    HW212063   4.214   1.070   2.404
  577SOL     OW12064   1.214   3.143   2.532
  577SOL    HW112065   1.155   3.132   2.452
  577SOL    HW212066   1.160   3.176   2.610
  578SOL     OW12067   9.916   5.132   0.369
  578SOL    HW112068   9.818   5.147   0.370
  578SOL    HW212069   9.945   5.101   0.278
  579SOL     OW12070   1.691   6.419   2.392
  579SOL    HW112071   1.765   6.355   2.414
  579SOL    HW212072   1.614   6.368   2.353
  580SOL     OW12073   2.978   6.136   2.830
  580SOL    HW112074   2.998   6.039   2.837
  580SOL    HW212075   3.051   6.181   2.778
  581SOL     OW12076   8.962   0.427   2.532
  581SOL    HW112077   8.945   0.343   2.481
  581SOL    HW212078   9.036   0.478   2.488
  582SOL     OW12079   5.452   8.609   2.713
  582SOL    HW112080   5.532   8.554   2.738
  582SOL    HW212081   5.478   8.678   2.645
  583SOL     OW12082   7.658   0.672   0.281
  583SOL    HW112083   7.600   0.721   0.216
  583SOL    HW212084   7.645   0.574   0.271
  584SOL     OW12085   1.805   5.173   1.941
  584SOL    HW112086   1.760   5.181   2.030
  584SOL    HW212087   1.775   5.248   1.881
  585SOL     OW12088   8.621   3.751   1.923
  585SOL    HW112089   8.594   3.656   1.907
  585SOL    HW212090   8.670   3.785   1.843
  586SOL     OW12091   2.513   8.437   1.674
  586SOL    HW112092   2.598   8.455   1.723
  586SOL    HW212093   2.447   8.509   1.695
  587SOL     OW12094   3.561   7.481   2.047
  587SOL    HW112095   3.640   7.425   2.021
  587SOL    HW212096   3.560   7.493   2.146
  588SOL     OW12097   2.367   5.960   2.842
  588SOL    HW112098   2.293   6.013   2.800
  588SOL    HW212099   2.330   5.877   2.882
  589SOL     OW12100   4.550   7.312   2.858
  589SOL    HW112101   4.499   7.228   2.877
  589SOL    HW212102   4.648   7.292   2.858
  590SOL     OW12103   2.042   6.135   2.961
  590SOL    HW112104   2.082   6.203   3.022
  590SOL    HW212105   2.095   6.131   2.876
  591SOL     OW12106   1.206   7.149   1.948
  591SOL    HW112107   1.229   7.063   1.995
  591SOL    HW212108   1.284   7.211   1.954
  592SOL     OW12109   8.357   2.289   1.689
  592SOL    HW112110   8.267   2.261   1.723
  592SOL    HW212111   8.356   2.291   1.589
  593SOL     OW12112   4.040   4.988   1.812
  593SOL    HW112113   4.129   5.023   1.783
  593SOL    HW212114   3.986   5.063   1.852
  594SOL     OW12115   3.350   8.879   2.387
  594SOL    HW112116   3.356   8.874   2.487
  594SOL    HW212117   3.394   8.963   2.355
  595SOL     OW12118   0.821   9.231   1.926
  595SOL    HW112119   0.877   9.189   1.998
  595SOL    HW212120   0.801   9.163   1.855
  596SOL     OW12121   8.635   6.514   1.968
  596SOL    HW112122   8.579   6.451   1.915
  596SOL    HW212123   8.576   6.571   2.026
  597SOL     OW12124   8.863   0.431   1.133
  597SOL    HW112125   8.899   0.384   1.213
  597SOL    HW212126   8.771   0.399   1.113
  598SOL     OW12127   1.259   0.097   2.337
  598SOL    HW112128   1.161   0.109   2.352
  598SOL    HW212129   1.275   0.017   2.280
  599SOL     OW12130   1.101   4.947   0.550
  599SOL    HW112131   1.118   4.975   0.456
  599SOL    HW212132   1.075   4.850   0.552
  600SOL     OW12133   2.870   1.099   0.226
  600SOL    HW112134   2.830   1.118   0.316
  600SOL    HW212135   2.810   1.035   0.176
  601SOL     OW12136   1.502   6.240   2.291
  601SOL    HW112137   1.451   6.223   2.207
  601SOL    HW212138   1.437   6.263   2.364
  602SOL     OW12139   9.787   6.289   2.385
  602SOL    HW112140   9.731   6.362   2.426
  602SOL    HW212141   9.870   6.277   2.439
  603SOL     OW12142   7.208   8.621   2.933
  603SOL    HW112143   7.251   8.653   2.849
  603SOL    HW212144   7.266   8.643   3.011
  604SOL     OW12145   8.582   4.627   1.193
  604SOL    HW112146   8.523   4.683   1.251
  604SOL    HW212147   8.639   4.568   1.251
  605SOL     OW12148   1.043   1.959   0.766
  605SOL    HW112149   1.122   2.019   0.761
  605SOL    HW212150   1.073   1.864   0.773
  606SOL     OW12151   9.958   2.478   0.968
  606SOL    HW112152   9.965   2.529   1.053
  606SOL    HW212153   9.869   2.432   0.964
  607SOL     OW12154   2.669   9.976   0.815
  607SOL    HW112155   2.762   9.940   0.809
  607SOL    HW212156   2.640   9.978   0.911
  608SOL     OW12157   8.445   0.635   1.805
  608SOL    HW112158   8.519   0.649   1.740
  608SOL    HW212159   8.467   0.679   1.891
  609SOL     OW12160   0.547   7.429   0.900
  609SOL    HW112161   0.453   7.397   0.911
  609SOL    HW212162   0.610   7.361   0.938
  610SOL     OW12163   0.870   9.721   1.425
  610SOL    HW112164   0.906   9.685   1.511
  610SOL    HW212165   0.913   9.809   1.405
  611SOL     OW12166   8.661   4.436   3.040
  611SOL    HW112167   8.583   4.480   3.085
  611SOL    HW212168   8.646   4.337   3.036
  612SOL     OW12169   1.791   6.004   2.056
  612SOL    HW112170   1.833   5.996   2.146
  612SOL    HW212171   1.751   6.095   2.045
  613SOL     OW12172   0.474   9.100   1.321
  613SOL    HW112173   0.483   9.182   1.377
  613SOL    HW212174   0.408   9.038   1.364
  614SOL     OW12175   2.834   1.488   2.694
  614SOL    HW112176   2.861   1.542   2.614
  614SOL    HW212177   2.819   1.550   2.772
  615SOL     OW12178   0.161   6.553   1.954
  615SOL    HW112179   0.118   6.533   1.866
  615SOL    HW212180   0.223   6.479   1.979
  616SOL     OW12181   4.684   7.716   2.264
  616SOL    HW112182   4.739   7.769   2.200
  616SOL    HW212183   4.744   7.653   2.314
  617SOL     OW12184   6.388   9.703   1.688
  617SOL    HW112185   6.349   9.623   1.642
  617SOL    HW212186   6.472   9.730   1.642
  618SOL     OW12187   1.948   1.310   2.944
  618SOL    HW112188   1.882   1.367   2.994
  618SOL    HW212189   1.908   1.220   2.927
  619SOL     OW12190   2.276   5.494   1.453
  619SOL    HW112191   2.220   5.417   1.423
  619SOL    HW212192   2.277   5.497   1.553
  620SOL     OW12193   7.452   8.745   0.330
  620SOL    HW112194   7.545   8.714   0.347
  620SOL    HW212195   7.434   8.744   0.231
  621SOL     OW12196   7.889   6.285   3.149
  621SOL    HW112197   7.800   6.262   3.108
  621SOL    HW212198   7.949   6.205   3.145
  622SOL     OW12199   8.360   3.560   2.186
  622SOL    HW112200   8.379   3.468   2.222
  622SOL    HW212201   8.374   3.627   2.258
  623SOL     OW12202   4.590   0.950   2.656
  623SOL    HW112203   4.522   0.962   2.583
  623SOL    HW212204   4.671   0.906   2.618
  624SOL     OW12205   2.660   8.563   2.805
  624SOL    HW112206   2.647   8.602   2.897
  624SOL    HW212207   2.599   8.485   2.793
  625SOL     OW12208   1.854   5.010   1.259
  625SOL    HW112209   1.917   4.950   1.307
  625SOL    HW212210   1.841   4.976   1.166
  626SOL     OW12211   3.976   2.463   2.154
  626SOL    HW112212   3.956   2.560   2.145
  626SOL    HW212213   3.891   2.412   2.167
  627SOL     OW12214   1.026   0.538   0.600
  627SOL    HW112215   1.035   0.572   0.506
  627SOL    HW212216   1.116   0.506   0.631
  628SOL     OW12217   9.188   1.648   1.958
  628SOL    HW112218   9.276   1.631   1.914
  628SOL    HW212219   9.151   1.562   1.993
  629SOL     OW12220   0.552   4.404   1.025
  629SOL    HW112221   0.508   4.471   0.965
  629SOL    HW212222   0.559   4.442   1.118
  630SOL     OW12223   2.477   2.417   0.764
  630SOL    HW112224   2.537   2.480   0.813
  630SOL    HW212225   2.384   2.455   0.761
  631SOL     OW12226   7.783   2.095   0.563
  631SOL    HW112227   7.874   2.055   0.574
  631SOL    HW212228   7.715   2.033   0.602
  632SOL     OW12229   0.400   2.585   0.876
  632SOL    HW112230   0.380   2.651   0.803
  632SOL    HW212231   0.326   2.517   0.881
  633SOL     OW12232   0.156   3.081   2.675
  633SOL    HW112233   0.056   3.075   2.680
  633SOL    HW212234   0.195   3.059   2.764
  634SOL     OW12235   9.212   2.445   0.633
  634SOL    HW112236   9.186   2.480   0.543
  634SOL    HW212237   9.283   2.503   0.673
  635SOL     OW12238   7.640   9.935   0.919
  635SOL    HW112239   7.622   9.844   0.883
  635SOL    HW212240   7.554   9.977   0.949
  636SOL     OW12241   1.120   3.726   3.149
  636SOL    HW112242   1.077   3.639   3.175
  636SOL    HW212243   1.072   3.764   3.071
  637SOL     OW12244   0.544   9.285   0.895
  637SOL    HW112245   0.602   9.246   0.824
  637SOL    HW212246   0.593   9.358   0.943
  638SOL     OW12247   3.477   3.580   1.931
  638SOL    HW112248   3.463   3.593   1.832
  638SOL    HW212249   3.526   3.495   1.946
  639SOL     OW12250   4.596   8.030   0.754
  639SOL    HW112251   4.618   8.099   0.685
  639SOL    HW212252   4.605   7.939   0.715
  640SOL     OW12253   4.143   7.184   1.445
  640SOL    HW112254   4.144   7.141   1.355
  640SOL    HW212255   4.049   7.196   1.475
  641SOL     OW12256   7.622   1.665   3.091
  641SOL    HW112257   7.718   1.638   3.098
  641SOL    HW212258   7.579   1.616   3.015
  642SOL     OW12259   8.440   7.592   3.027
  642SOL    HW112260   8.520   7.652   3.037
  642SOL    HW212261   8.398   7.607   2.938
  643SOL     OW12262   8.355   5.707   2.542
  643SOL    HW112263   8.335   5.707   2.640
  643SOL    HW212264   8.344   5.615   2.506
  644SOL     OW12265   3.980   0.512   1.458
  644SOL    HW112266   3.979   0.497   1.557
  644SOL    HW212267   4.027   0.436   1.413
  645SOL     OW12268   3.859   9.534   1.298
  645SOL    HW112269   3.803   9.470   1.350
  645SOL    HW212270   3.906   9.596   1.361
  646SOL     OW12271   5.572   8.106   3.015
  646SOL    HW112272   5.537   8.133   3.104
  646SOL    HW212273   5.558   8.008   3.002
  647SOL     OW12274   0.376   8.043   2.793
  647SOL    HW112275   0.417   7.956   2.817
  647SOL    HW212276   0.445   8.102   2.750
  648SOL     OW12277   2.379   9.017   1.007
  648SOL    HW112278   2.463   8.988   0.961
  648SOL    HW212279   2.383   9.115   1.024
  649SOL     OW12280   9.391   0.840   0.818
  649SOL    HW112281   9.456   0.876   0.751
  649SOL    HW212282   9.297   0.856   0.787
  650SOL     OW12283   0.267   9.570   1.739
  650SOL    HW112284   0.183   9.556   1.686
  650SOL    HW212285   0.246   9.567   1.837
  651SOL     OW12286   0.344   1.846   2.114
  651SOL    HW112287   0.249   1.861   2.139
  651SOL    HW212288   0.351   1.765   2.055
  652SOL     OW12289   9.464   3.397   0.458
  652SOL    HW112290   9.560   3.403   0.431
  652SOL    HW212291   9.421   3.488   0.450
  653SOL     OW12292   7.812   2.327   0.720
  653SOL    HW112293   7.741   2.394   0.699
  653SOL    HW212294   7.806   2.252   0.654
  654SOL     OW12295   0.215   2.325   2.323
  654SOL    HW112296   0.155   2.284   2.254
  654SOL    HW212297   0.310   2.322   2.292
  655SOL     OW12298   0.279   2.665   0.614
  655SOL    HW112299   0.305   2.569   0.602
  655SOL    HW212300   0.190   2.670   0.659
  656SOL     OW12301   9.762   2.710   1.811
  656SOL    HW112302   9.680   2.733   1.863
  656SOL    HW212303   9.756   2.750   1.720
  657SOL     OW12304   2.393   3.995   1.879
  657SOL    HW112305   2.353   4.076   1.836
  657SOL    HW212306   2.491   3.993   1.860
  658SOL     OW12307   8.728   4.795   2.301
  658SOL    HW112308   8.740   4.872   2.239
  658SOL    HW212309   8.710   4.829   2.394
  659SOL     OW12310   1.736   5.447   2.235
  659SOL    HW112311   1.730   5.503   2.152
  659SOL    HW212312   1.712   5.353   2.214
  660SOL     OW12313   3.276   7.285   3.012
  660SOL    HW112314   3.328   7.199   3.007
  660SOL    HW212315   3.203   7.276   3.079
  661SOL     OW12316   0.590   3.072   0.770
  661SOL    HW112317   0.573   3.110   0.861
  661SOL    HW212318   0.518   3.007   0.747
  662SOL     OW12319   4.136   2.483   1.577
  662SOL    HW112320   4.058   2.420   1.577
  662SOL    HW212321   4.220   2.433   1.596
  663SOL     OW12322   9.058   1.475   0.181
  663SOL    HW112323   9.027   1.570   0.176
  663SOL    HW212324   9.133   1.468   0.246
  664SOL     OW12325   7.865   8.999   1.779
  664SOL    HW112326   7.930   9.071   1.758
  664SOL    HW212327   7.774   9.025   1.746
  665SOL     OW12328   2.254   8.999   2.090
  665SOL    HW112329   2.168   9.012   2.042
  665SOL    HW212330   2.280   8.902   2.085
  666SOL     OW12331   4.582   2.847   1.385
  666SOL    HW112332   4.659   2.791   1.355
  666SOL    HW212333   4.567   2.834   1.483
  667SOL     OW12334   2.616   6.045   1.388
  667SOL    HW112335   2.632   6.021   1.292
  667SOL    HW212336   2.617   6.144   1.399
  668SOL     OW12337   2.164   9.382   2.129
  668SOL    HW112338   2.175   9.345   2.037
  668SOL    HW212339   2.116   9.470   2.123
  669SOL     OW12340   8.575   6.343   1.062
  669SOL    HW112341   8.563   6.350   0.963
  669SOL    HW212342   8.590   6.248   1.088
  670SOL     OW12343   2.598   7.540   3.141
  670SOL    HW112344   2.553   7.497   3.219
  670SOL    HW212345   2.582   7.639   3.144
  671SOL     OW12346   0.388   9.390   0.076
  671SOL    HW112347   0.356   9.484   0.068
  671SOL    HW212348   0.488   9.389   0.076
  672SOL     OW12349   2.260   1.962   2.741
  672SOL    HW112350   2.170   1.955   2.699
  672SOL    HW212351   2.253   1.951   2.840
  673SOL     OW12352   8.601   3.377   0.203
  673SOL    HW112353   8.554   3.404   0.286
  673SOL    HW212354   8.535   3.347   0.134
  674SOL     OW12355   1.125   5.895   1.311
  674SOL    HW112356   1.090   5.892   1.218
  674SOL    HW212357   1.083   5.972   1.360
  675SOL     OW12358   6.525   8.367   2.786
  675SOL    HW112359   6.533   8.305   2.708
  675SOL    HW212360   6.504   8.459   2.754
  676SOL     OW12361   0.429   0.798   0.825
  676SOL    HW112362   0.439   0.729   0.897
  676SOL    HW212363   0.337   0.792   0.785
  677SOL     OW12364   3.282   2.836   0.298
  677SOL    HW112365   3.217   2.770   0.336
  677SOL    HW212366   3.284   2.917   0.355
  678SOL     OW12367   2.664   8.947   2.033
  678SOL    HW112368   2.638   8.860   2.074
  678SOL    HW212369   2.757   8.971   2.061
  679SOL     OW12370   0.673   7.817   0.835
  679SOL    HW112371   0.639   7.772   0.917
  679SOL    HW212372   0.658   7.916   0.842
  680SOL     OW12373   3.854   2.328   2.610
  680SOL    HW112374   3.891   2.263   2.544
  680SOL    HW212375   3.840   2.416   2.565
  681SOL     OW12376   0.275   0.181   0.441
  681SOL    HW112377   0.205   0.157   0.509
  681SOL    HW212378   0.254   0.137   0.354
  682SOL     OW12379   0.811   9.683   0.657
  682SOL    HW112380   0.728   9.690   0.712
  682SOL    HW212381   0.844   9.588   0.656
  683SOL     OW12382   3.042   8.673   1.856
  683SOL    HW112383   2.986   8.717   1.785
  683SOL    HW212384   3.131   8.720   1.862
  684SOL     OW12385   9.017   9.894   1.961
  684SOL    HW112386   9.098   9.925   2.012
  684SOL    HW212387   8.941   9.881   2.025
  685SOL     OW12388   3.133   0.302   2.322
  685SOL    HW112389   3.158   0.252   2.239
  685SOL    HW212390   3.214   0.317   2.378
  686SOL     OW12391   0.087   5.704   1.713
  686SOL    HW112392   0.057   5.667   1.625
  686SOL    HW212393   0.037   5.659   1.787
  687SOL     OW12394   8.394   9.138   0.285
  687SOL    HW112395   8.295   9.148   0.296
  687SOL    HW212396   8.438   9.226   0.304
  688SOL     OW12397   2.250   3.559   2.983
  688SOL    HW112398   2.300   3.517   2.907
  688SOL    HW212399   2.197   3.637   2.950
  689SOL     OW12400   9.989   4.611   2.575
  689SOL    HW112401   0.011   4.650   2.665
  689SOL    HW212402   9.892   4.625   2.555
  690SOL     OW12403   5.059   9.825   3.112
  690SOL    HW112404   5.016   9.892   3.172
  690SOL    HW212405   4.998   9.747   3.099
  691SOL     OW12406   2.498   9.116   3.103
  691SOL    HW112407   2.422   9.099   3.039
  691SOL    HW212408   2.461   9.142   3.192
  692SOL     OW12409   6.928   8.917   1.775
  692SOL    HW112410   6.993   8.858   1.728
  692SOL    HW212411   6.872   8.861   1.836
  693SOL     OW12412   3.744   3.707   0.713
  693SOL    HW112413   3.823   3.645   0.720
  693SOL    HW212414   3.663   3.655   0.686
  694SOL     OW12415   0.127   7.410   0.222
  694SOL    HW112416   0.076   7.447   0.300
  694SOL    HW212417   0.191   7.340   0.255
  695SOL     OW12418   2.430   1.394   2.387
  695SOL    HW112419   2.347   1.357   2.429
  695SOL    HW212420   2.423   1.493   2.381
  696SOL     OW12421   1.533   0.392   1.287
  696SOL    HW112422   1.449   0.442   1.309
  696SOL    HW212423   1.515   0.294   1.293
  697SOL     OW12424   4.745   7.701   2.617
  697SOL    HW112425   4.767   7.638   2.542
  697SOL    HW212426   4.757   7.795   2.586
  698SOL     OW12427   4.671   8.684   0.626
  698SOL    HW112428   4.580   8.644   0.620
  698SOL    HW212429   4.698   8.690   0.722
  699SOL     OW12430   8.697   9.353   1.665
  699SOL    HW112431   8.750   9.388   1.588
  699SOL    HW212432   8.757   9.340   1.744
  700SOL     OW12433   4.129   0.091   1.849
  700SOL    HW112434   4.212   0.070   1.902
  700SOL    HW212435   4.075   0.159   1.898
  701SOL     OW12436   4.910   1.794   1.050
  701SOL    HW112437   4.823   1.784   1.002
  701SOL    HW212438   4.937   1.706   1.090
  702SOL     OW12439   0.811   3.582   0.330
  702SOL    HW112440   0.818   3.655   0.398
  702SOL    HW212441   0.872   3.506   0.357
  703SOL     OW12442   0.322   0.347   1.132
  703SOL    HW112443   0.292   0.404   1.208
  703SOL    HW212444   0.271   0.261   1.132
  704SOL     OW12445   7.967   3.057   0.492
  704SOL    HW112446   7.873   3.082   0.471
  704SOL    HW212447   8.013   3.026   0.408
  705SOL     OW12448   3.131   7.019   1.862
  705SOL    HW112449   3.193   6.989   1.790
  705SOL    HW212450   3.159   7.109   1.895
  706SOL     OW12451   1.485   2.949   1.684
  706SOL    HW112452   1.415   3.004   1.731
  706SOL    HW212453   1.555   2.921   1.749
  707SOL     OW12454   6.447   7.524   2.560
  707SOL    HW112455   6.490   7.547   2.473
  707SOL    HW212456   6.424   7.427   2.562
  708SOL     OW12457   1.561   9.666   2.711
  708SOL    HW112458   1.514   9.701   2.792
  708SOL    HW212459   1.569   9.567   2.717
  709SOL     OW12460   2.913   0.735   1.603
  709SOL    HW112461   2.935   0.820   1.555
  709SOL    HW212462   2.890   0.664   1.536
  710SOL     OW12463   2.380   1.738   2.976
  710SOL    HW112464   2.464   1.791   2.961
  710SOL    HW212465   2.402   1.655   3.027
  711SOL     OW12466   9.647   7.836   1.999
  711SOL    HW112467   9.692   7.870   2.081
  711SOL    HW212468   9.558   7.797   2.023
  712SOL     OW12469   1.481   3.124   0.261
  712SOL    HW112470   1.446   3.211   0.298
  712SOL    HW212471   1.404   3.067   0.232
  713SOL     OW12472   0.802   7.647   0.481
  713SOL    HW112473   0.831   7.648   0.577
  713SOL    HW212474   0.721   7.705   0.470
  714SOL     OW12475   1.528   7.118   0.717
  714SOL    HW112476   1.607   7.060   0.700
  714SOL    HW212477   1.485   7.142   0.630
  715SOL     OW12478   3.714   1.822   2.211
  715SOL    HW112479   3.735   1.786   2.120
  715SOL    HW212480   3.794   1.808   2.271
  716SOL     OW12481   9.881   8.499   2.065
  716SOL    HW112482   9.852   8.543   2.150
  716SOL    HW212483   9.968   8.540   2.035
  717SOL     OW12484   4.098   0.318   1.305
  717SOL    HW112485   4.061   0.303   1.213
  717SOL    HW212486   4.184   0.368   1.299
  718SOL     OW12487   0.325   6.343   2.003
  718SOL    HW112488   0.327   6.287   2.086
  718SOL    HW212489   0.374   6.296   1.930
  719SOL     OW12490   3.350   0.156   1.796
  719SOL    HW112491   3.446   0.150   1.768
  719SOL    HW212492   3.315   0.247   1.774
  720SOL     OW12493   3.351   0.346   0.849
  720SOL    HW112494   3.371   0.442   0.830
  720SOL    HW212495   3.268   0.340   0.905
  721SOL     OW12496   8.404   3.025   0.548
  721SOL    HW112497   8.497   2.993   0.564
  721SOL    HW212498   8.399   3.123   0.564
  722SOL     OW12499   8.925   0.893   1.386
  722SOL    HW112500   8.874   0.962   1.335
  722SOL    HW212501   8.996   0.853   1.328
  723SOL     OW12502   4.101   8.488   2.165
  723SOL    HW112503   4.048   8.547   2.225
  723SOL    HW212504   4.064   8.493   2.072
  724SOL     OW12505   9.064   3.621   2.060
  724SOL    HW112506   9.077   3.714   2.092
  724SOL    HW212507   9.139   3.563   2.093
  725SOL     OW12508   8.616   5.410   1.228
  725SOL    HW112509   8.634   5.432   1.324
  725SOL    HW212510   8.525   5.442   1.202
  726SOL     OW12511   4.761   8.699   0.886
  726SOL    HW112512   4.710   8.660   0.963
  726SOL    HW212513   4.794   8.790   0.911
  727SOL     OW12514   4.492   3.314   0.157
  727SOL    HW112515   4.525   3.229   0.198
  727SOL    HW212516   4.561   3.385   0.167
  728SOL     OW12517   3.147   7.681   1.820
  728SOL    HW112518   3.090   7.703   1.899
  728SOL    HW212519   3.243   7.674   1.850
  729SOL     OW12520   3.504   4.108   1.211
  729SOL    HW112521   3.538   4.093   1.304
  729SOL    HW212522   3.417   4.060   1.198
  730SOL     OW12523   8.371   3.293   0.612
  730SOL    HW112524   8.418   3.321   0.696
  730SOL    HW212525   8.272   3.301   0.625
  731SOL     OW12526   0.511   1.231   2.082
  731SOL    HW112527   0.411   1.222   2.083
  731SOL    HW212528   0.549   1.186   2.164
  732SOL     OW12529   8.444   2.182   0.548
  732SOL    HW112530   8.410   2.241   0.622
  732SOL    HW212531   8.520   2.127   0.582
  733SOL     OW12532   4.817   0.519   2.297
  733SOL    HW112533   4.916   0.515   2.287
  733SOL    HW212534   4.774   0.466   2.224
  734SOL     OW12535   0.427   3.432   1.421
  734SOL    HW112536   0.390   3.421   1.329
  734SOL    HW212537   0.381   3.509   1.466
  735SOL     OW12538   6.772   8.837   2.296
  735SOL    HW112539   6.860   8.864   2.256
  735SOL    HW212540   6.717   8.919   2.312
  736SOL     OW12541   0.142   0.802   0.293
  736SOL    HW112542   0.207   0.760   0.229
  736SOL    HW212543   0.102   0.731   0.350
  737SOL     OW12544   2.892   1.947   2.971
  737SOL    HW112545   2.940   1.887   2.908
  737SOL    HW212546   2.955   1.978   3.042
  738SOL     OW12547   0.159   3.045   0.815
  738SOL    HW112548   0.116   2.976   0.874
  738SOL    HW212549   0.156   3.134   0.860
  739SOL     OW12550   9.680   5.594   0.665
  739SOL    HW112551   9.622   5.593   0.746
  739SOL    HW212552   9.697   5.689   0.637
  740SOL     OW12553   3.580   8.962   2.884
  740SOL    HW112554   3.664   8.957   2.831
  740SOL    HW212555   3.581   8.893   2.956
  741SOL     OW12556   2.515   7.804   3.162
  741SOL    HW112557   2.449   7.828   3.234
  741SOL    HW212558   2.469   7.807   3.073
  742SOL     OW12559   3.254   4.229   3.071
  742SOL    HW112560   3.325   4.291   3.103
  742SOL    HW212561   3.184   4.282   3.023
  743SOL     OW12562   3.322   3.074   0.453
  743SOL    HW112563   3.359   3.131   0.379
  743SOL    HW212564   3.395   3.049   0.516
  744SOL     OW12565   9.924   9.579   1.234
  744SOL    HW112566   9.906   9.490   1.276
  744SOL    HW212567   9.965   9.567   1.144
  745SOL     OW12568   2.547   0.735   2.955
  745SOL    HW112569   2.496   0.819   2.937
  745SOL    HW212570   2.501   0.684   3.028
  746SOL     OW12571   9.951   0.749   2.638
  746SOL    HW112572   9.969   0.704   2.725
  746SOL    HW212573   9.961   0.848   2.649
  747SOL     OW12574   8.324   5.686   2.158
  747SOL    HW112575   8.248   5.664   2.219
  747SOL    HW212576   8.347   5.607   2.103
  748SOL     OW12577   9.076   1.567   2.793
  748SOL    HW112578   9.089   1.618   2.878
  748SOL    HW212579   9.073   1.469   2.812
  749SOL     OW12580   0.841   0.559   1.727
  749SOL    HW112581   0.916   0.595   1.782
  749SOL    HW212582   0.845   0.599   1.635
  750SOL     OW12583   0.593   2.456   3.035
  750SOL    HW112584   0.685   2.449   2.996
  750SOL    HW212585   0.576   2.550   3.065
  751SOL     OW12586   1.948   7.727   2.633
  751SOL    HW112587   1.915   7.685   2.717
  751SOL    HW212588   1.893   7.807   2.611
  752SOL     OW12589   1.578   1.789   0.348
  752SOL    HW112590   1.540   1.851   0.417
  752SOL    HW212591   1.676   1.779   0.364
  753SOL     OW12592   9.539   0.278   2.306
  753SOL    HW112593   9.621   0.245   2.352
  753SOL    HW212594   9.486   0.335   2.369
  754SOL     OW12595   2.687   4.278   0.788
  754SOL    HW112596   2.641   4.330   0.716
  754SOL    HW212597   2.695   4.182   0.761
  755SOL     OW12598   2.602   9.259   0.753
  755SOL    HW112599   2.544   9.187   0.715
  755SOL    HW212600   2.592   9.342   0.699
  756SOL     OW12601   7.999   5.928   0.217
  756SOL    HW112602   8.092   5.959   0.233
  756SOL    HW212603   7.999   5.830   0.198
  757SOL     OW12604   4.850   3.099   2.709
  757SOL    HW112605   4.798   3.180   2.680
  757SOL    HW212606   4.787   3.033   2.751
  758SOL     OW12607   9.113   7.269   0.509
  758SOL    HW112608   9.083   7.356   0.469
  758SOL    HW212609   9.122   7.279   0.608
  759SOL     OW12610   7.470   3.408   0.791
  759SOL    HW112611   7.439   3.473   0.861
  759SOL    HW212612   7.395   3.348   0.765
  760SOL     OW12613   7.627   1.021   0.589
  760SOL    HW112614   7.699   1.008   0.656
  760SOL    HW212615   7.567   1.096   0.619
  761SOL     OW12616   8.711   0.582   2.845
  761SOL    HW112617   8.623   0.622   2.869
  761SOL    HW212618   8.752   0.539   2.926
  762SOL     OW12619   6.802   8.358   1.949
  762SOL    HW112620   6.865   8.281   1.933
  762SOL    HW212621   6.848   8.426   2.007
  763SOL     OW12622   9.484   6.329   2.165
  763SOL    HW112623   9.528   6.249   2.204
  763SOL    HW212624   9.529   6.354   2.079
  764SOL     OW12625   2.501   5.618   2.933
  764SOL    HW112626   2.568   5.598   3.005
  764SOL    HW212627   2.520   5.561   2.853
  765SOL     OW12628   7.999   0.156   0.917
  765SOL    HW112629   7.945   0.118   0.842
  765SOL    HW212630   8.038   0.082   0.972
  766SOL     OW12631   1.661   6.100   1.710
  766SOL    HW112632   1.728   6.154   1.760
  766SOL    HW212633   1.696   6.081   1.618
  767SOL     OW12634   4.760   4.974   2.165
  767SOL    HW112635   4.715   4.947   2.250
  767SOL    HW212636   4.691   4.991   2.095
  768SOL     OW12637   4.378   1.744   2.410
  768SOL    HW112638   4.353   1.795   2.491
  768SOL    HW212639   4.309   1.674   2.391
  769SOL     OW12640   0.598   6.625   0.648
  769SOL    HW112641   0.639   6.612   0.738
  769SOL    HW212642   0.660   6.589   0.577
  770SOL     OW12643   6.559   0.097   2.386
  770SOL    HW112644   6.485   0.087   2.320
  770SOL    HW212645   6.602   0.187   2.375
  771SOL     OW12646   9.970   4.169   1.823
  771SOL    HW112647   0.037   4.213   1.763
  771SOL    HW212648   0.015   4.094   1.873
  772SOL     OW12649   1.235   9.297   1.241
  772SOL    HW112650   1.286   9.227   1.291
  772SOL    HW212651   1.216   9.264   1.148
  773SOL     OW12652   1.343   2.159   2.533
  773SOL    HW112653   1.370   2.138   2.627
  773SOL    HW212654   1.289   2.243   2.532
  774SOL     OW12655   7.272   8.961   1.401
  774SOL    HW112656   7.207   8.982   1.328
  774SOL    HW212657   7.327   9.042   1.422
  775SOL     OW12658   0.616   7.577   2.794
  775SOL    HW112659   0.551   7.503   2.780
  775SOL    HW212660   0.691   7.568   2.728
  776SOL     OW12661   1.562   2.490   1.623
  776SOL    HW112662   1.528   2.453   1.709
  776SOL    HW212663   1.506   2.567   1.595
  777SOL     OW12664   8.801   2.563   1.975
  777SOL    HW112665   8.771   2.532   2.065
  777SOL    HW212666   8.806   2.663   1.975
  778SOL     OW12667   1.775   0.213   2.769
  778SOL    HW112668   1.828   0.190   2.850
  778SOL    HW212669   1.797   0.148   2.696
  779SOL     OW12670   9.414   9.259   0.078
  779SOL    HW112671   9.449   9.182   0.132
  779SOL    HW212672   9.430   9.344   0.127
  780SOL     OW12673   1.787   4.830   0.281
  780SOL    HW112674   1.770   4.900   0.351
  780SOL    HW212675   1.705   4.774   0.271
  781SOL     OW12676   8.965   9.686   2.322
  781SOL    HW112677   8.923   9.741   2.250
  781SOL    HW212678   8.942   9.589   2.307
  782SOL     OW12679   3.437   4.435   3.112
  782SOL    HW112680   3.526   4.462   3.077
  782SOL    HW212681   3.376   4.514   3.112
  783SOL     OW12682   3.193   2.748   1.827
  783SOL    HW112683   3.130   2.683   1.785
  783SOL    HW212684   3.178   2.839   1.788
  784SOL     OW12685   3.279   7.370   1.491
  784SOL    HW112686   3.300   7.379   1.589
  784SOL    HW212687   3.293   7.458   1.446
  785SOL     OW12688   0.408   3.633   0.335
  785SOL    HW112689   0.468   3.570   0.286
  785SOL    HW212690   0.314   3.601   0.329
  786SOL     OW12691   6.428   9.270   2.778
  786SOL    HW112692   6.353   9.317   2.731
  786SOL    HW212693   6.489   9.229   2.711
  787SOL     OW12694   6.366   8.690   2.243
  787SOL    HW112695   6.354   8.777   2.292
  787SOL    HW212696   6.406   8.622   2.305
  788SOL     OW12697   2.669   5.997   0.819
  788SOL    HW112698   2.729   5.947   0.882
  788SOL    HW212699   2.655   5.942   0.737
  789SOL     OW12700   7.630   7.413   2.810
  789SOL    HW112701   7.580   7.447   2.889
  789SOL    HW212702   7.721   7.383   2.838
  790SOL     OW12703   2.132   4.872   0.458
  790SOL    HW112704   2.166   4.858   0.365
  790SOL    HW212705   2.064   4.802   0.479
  791SOL     OW12706   2.292   6.097   2.476
  791SOL    HW112707   2.290   6.186   2.431
  791SOL    HW212708   2.381   6.082   2.517
  792SOL     OW12709   1.423   3.076   1.113
  792SOL    HW112710   1.364   3.047   1.037
  792SOL    HW212711   1.391   3.034   1.198
  793SOL     OW12712   8.715   6.785   2.187
  793SOL    HW112713   8.621   6.757   2.170
  793SOL    HW212714   8.770   6.771   2.105
  794SOL     OW12715   1.363   5.383   2.380
  794SOL    HW112716   1.447   5.415   2.423
  794SOL    HW212717   1.286   5.400   2.441
  795SOL     OW12718   8.633   8.310   1.782
  795SOL    HW112719   8.554   8.368   1.803
  795SOL    HW212720   8.714   8.368   1.772
  796SOL     OW12721   8.177   1.173   0.910
  796SOL    HW112722   8.077   1.172   0.919
  796SOL    HW212723   8.202   1.206   0.819
  797SOL     OW12724   0.975   8.406   2.754
  797SOL    HW112725   0.951   8.458   2.672
  797SOL    HW212726   0.999   8.312   2.728
  798SOL     OW12727   4.416   8.187   0.887
  798SOL    HW112728   4.474   8.123   0.835
  798SOL    HW212729   4.453   8.199   0.978
  799SOL     OW12730   2.775   4.267   1.840
  799SOL    HW112731   2.843   4.328   1.800
  799SOL    HW212732   2.683   4.302   1.821
  800SOL     OW12733   0.531   7.825   2.861
  800SOL    HW112734   0.599   7.864   2.923
  800SOL    HW212735   0.558   7.731   2.837
  801SOL     OW12736   9.648   2.737   3.005
  801SOL    HW112737   9.551   2.717   3.018
  801SOL    HW212738   9.689   2.766   3.092
  802SOL     OW12739   6.664   7.880   2.494
  802SOL    HW112740   6.714   7.965   2.512
  802SOL    HW212741   6.604   7.860   2.571
  803SOL     OW12742   9.448   4.280   2.361
  803SOL    HW112743   9.364   4.331   2.379
  803SOL    HW212744   9.427   4.200   2.306
  804SOL     OW12745   8.829   2.382   0.129
  804SOL    HW112746   8.927   2.373   0.145
  804SOL    HW212747   8.786   2.292   0.128
  805SOL     OW12748   8.538   0.721   2.047
  805SOL    HW112749   8.590   0.665   2.112
  805SOL    HW212750   8.602   0.779   1.995
  806SOL     OW12751   9.598   0.023   0.551
  806SOL    HW112752   9.663   9.999   0.623
  806SOL    HW212753   9.551   0.108   0.576
  807SOL     OW12754   8.790   9.774   2.516
  807SOL    HW112755   8.863   9.745   2.454
  807SOL    HW212756   8.811   9.864   2.553
  808SOL     OW12757   2.911   8.185   0.490
  808SOL    HW112758   2.937   8.163   0.396
  808SOL    HW212759   2.838   8.124   0.519
  809SOL     OW12760   3.288   8.021   2.238
  809SOL    HW112761   3.320   7.931   2.209
  809SOL    HW212762   3.200   8.041   2.194
  810SOL     OW12763   9.377   7.001   2.088
  810SOL    HW112764   9.424   6.943   2.021
  810SOL    HW212765   9.305   6.948   2.133
  811SOL     OW12766   8.443   6.259   2.917
  811SOL    HW112767   8.477   6.196   2.847
  811SOL    HW212768   8.520   6.311   2.955
  812SOL     OW12769   0.386   5.843   3.001
  812SOL    HW112770   0.349   5.750   2.999
  812SOL    HW212771   0.318   5.906   3.038
  813SOL     OW12772   2.636   4.846   0.170
  813SOL    HW112773   2.571   4.772   0.188
  813SOL    HW212774   2.729   4.811   0.174
  814SOL     OW12775   1.519   5.165   2.580
  814SOL    HW112776   1.446   5.211   2.632
  814SOL    HW212777   1.505   5.066   2.583
  815SOL     OW12778   3.715   0.446   0.640
  815SOL    HW112779   3.747   0.470   0.548
  815SOL    HW212780   3.688   0.529   0.689
  816SOL     OW12781   3.413   8.312   1.273
  816SOL    HW112782   3.431   8.318   1.175
  816SOL    HW212783   3.458   8.389   1.319
  817SOL     OW12784   1.123   1.724   0.129
  817SOL    HW112785   1.072   1.804   0.161
  817SOL    HW212786   1.221   1.742   0.134
  818SOL     OW12787   0.735   0.408   1.172
  818SOL    HW112788   0.830   0.378   1.178
  818SOL    HW212789   0.675   0.327   1.169
  819SOL     OW12790   0.105   1.650   2.318
  819SOL    HW112791   0.175   1.666   2.388
  819SOL    HW212792   0.089   1.734   2.267
  820SOL     OW12793   3.456   4.378   1.163
  820SOL    HW112794   3.470   4.279   1.176
  820SOL    HW212795   3.360   4.400   1.180
  821SOL     OW12796   1.541   3.751   1.329
  821SOL    HW112797   1.480   3.757   1.250
  821SOL    HW212798   1.605   3.828   1.328
  822SOL     OW12799   8.397   4.017   1.011
  822SOL    HW112800   8.436   4.100   1.049
  822SOL    HW212801   8.320   3.987   1.068
  823SOL     OW12802   2.807   7.921   2.037
  823SOL    HW112803   2.792   8.001   1.978
  823SOL    HW212804   2.719   7.880   2.059
  824SOL     OW12805   1.133   8.981   1.401
  824SOL    HW112806   1.222   9.026   1.409
  824SOL    HW212807   1.132   8.924   1.319
  825SOL     OW12808   0.744   8.676   2.600
  825SOL    HW112809   0.782   8.716   2.683
  825SOL    HW212810   0.736   8.747   2.530
  826SOL     OW12811   3.218   9.568   1.534
  826SOL    HW112812   3.205   9.664   1.510
  826SOL    HW212813   3.237   9.515   1.451
  827SOL     OW12814   7.885   7.626   2.533
  827SOL    HW112815   7.786   7.631   2.540
  827SOL    HW212816   7.913   7.529   2.531
  828SOL     OW12817   5.529   0.844   1.838
  828SOL    HW112818   5.468   0.836   1.760
  828SOL    HW212819   5.476   0.860   1.921
  829SOL     OW12820   9.305   2.094   1.744
  829SOL    HW112821   9.248   2.026   1.789
  829SOL    HW212822   9.297   2.084   1.645
  830SOL     OW12823   4.391   4.371   2.114
  830SOL    HW112824   4.400   4.281   2.072
  830SOL    HW212825   4.325   4.367   2.189
  831SOL     OW12826   0.205   2.044   0.825
  831SOL    HW112827   0.248   2.094   0.899
  831SOL    HW212828   0.107   2.034   0.844
  832SOL     OW12829   9.358   6.097   1.610
  832SOL    HW112830   9.444   6.139   1.582
  832SOL    HW212831   9.307   6.066   1.529
  833SOL     OW12832   9.362   8.666   2.012
  833SOL    HW112833   9.410   8.629   1.932
  833SOL    HW212834   9.308   8.593   2.054
  834SOL     OW12835   9.027   8.561   3.090
  834SOL    HW112836   9.008   8.659   3.082
  834SOL    HW212837   9.015   8.532   3.185
  835SOL     OW12838   3.025   3.724   1.974
  835SOL    HW112839   2.930   3.701   1.955
  835SOL    HW212840   3.052   3.685   2.063
  836SOL     OW12841   1.806   5.417   1.796
  836SOL    HW112842   1.811   5.456   1.704
  836SOL    HW212843   1.898   5.402   1.832
  837SOL     OW12844   8.238   8.207   1.652
  837SOL    HW112845   8.253   8.303   1.677
  837SOL    HW212846   8.181   8.202   1.570
  838SOL     OW12847   3.338   0.737   2.505
  838SOL    HW112848   3.242   0.745   2.478
  838SOL    HW212849   3.382   0.665   2.452
  839SOL     OW12850   9.301   3.040   0.908
  839SOL    HW112851   9.211   3.049   0.865
  839SOL    HW212852   9.326   2.943   0.914
  840SOL     OW12853   0.460   1.923   0.480
  840SOL    HW112854   0.386   1.898   0.542
  840SOL    HW212855   0.474   1.849   0.414
  841SOL     OW12856   7.736   6.746   2.987
  841SOL    HW112857   7.799   6.820   2.961
  841SOL    HW212858   7.784   6.681   3.045
  842SOL     OW12859   2.345   2.428   2.322
  842SOL    HW112860   2.387   2.342   2.292
  842SOL    HW212861   2.351   2.436   2.421
  843SOL     OW12862   0.623   9.023   0.210
  843SOL    HW112863   0.550   8.956   0.225
  843SOL    HW212864   0.593   9.092   0.145
  844SOL     OW12865   8.115   9.191   1.330
  844SOL    HW112866   8.018   9.209   1.315
  844SOL    HW212867   8.142   9.109   1.280
  845SOL     OW12868   4.047   1.060   2.903
  845SOL    HW112869   4.123   1.082   2.843
  845SOL    HW212870   4.042   1.126   2.977
  846SOL     OW12871   3.606   3.348   1.986
  846SOL    HW112872   3.561   3.260   2.004
  846SOL    HW212873   3.690   3.354   2.040
  847SOL     OW12874   5.465   8.732   2.103
  847SOL    HW112875   5.551   8.699   2.141
  847SOL    HW212876   5.452   8.694   2.011
  848SOL     OW12877   1.938   1.170   1.567
  848SOL    HW112878   1.956   1.241   1.499
  848SOL    HW212879   1.851   1.126   1.548
  849SOL     OW12880   0.502   4.596   2.170
  849SOL    HW112881   0.582   4.635   2.123
  849SOL    HW212882   0.500   4.629   2.264
  850SOL     OW12883   8.472   4.622   3.119
  850SOL    HW112884   8.381   4.657   3.139
  850SOL    HW212885   8.525   4.690   3.069
  851SOL     OW12886   4.042   7.722   0.812
  851SOL    HW112887   4.100   7.797   0.845
  851SOL    HW212888   4.085   7.679   0.733
  852SOL     OW12889   1.461   0.846   1.011
  852SOL    HW112890   1.384   0.874   0.953
  852SOL    HW212891   1.449   0.751   1.040
  853SOL     OW12892   9.585   1.930   2.438
  853SOL    HW112893   9.562   1.907   2.344
  853SOL    HW212894   9.684   1.933   2.449
  854SOL     OW12895   1.858   9.914   1.861
  854SOL    HW112896   1.908   9.874   1.784
  854SOL    HW212897   1.918   9.980   1.908
  855SOL     OW12898   8.716   3.969   2.466
  855SOL    HW112899   8.687   4.018   2.384
  855SOL    HW212900   8.735   3.873   2.443
  856SOL     OW12901   2.366   9.446   2.314
  856SOL    HW112902   2.309   9.406   2.242
  856SOL    HW212903   2.451   9.396   2.322
  857SOL     OW12904   1.035   3.480   1.994
  857SOL    HW112905   1.020   3.474   2.093
  857SOL    HW212906   0.977   3.413   1.948
  858SOL     OW12907   8.341   9.678   2.134
  858SOL    HW112908   8.388   9.603   2.089
  858SOL    HW212909   8.374   9.688   2.228
  859SOL     OW12910   2.841   6.189   2.217
  859SOL    HW112911   2.796   6.277   2.235
  859SOL    HW212912   2.899   6.165   2.295
  860SOL     OW12913   0.278   5.598   2.990
  860SOL    HW112914   0.308   5.502   2.993
  860SOL    HW212915   0.182   5.602   2.962
  861SOL     OW12916   0.040   4.763   0.687
  861SOL    HW112917   0.087   4.712   0.615
  861SOL    HW212918   9.984   4.835   0.645
  862SOL     OW12919   3.317   6.523   2.863
  862SOL    HW112920   3.239   6.514   2.801
  862SOL    HW212921   3.293   6.585   2.938
  863SOL     OW12922   0.268   1.313   1.324
  863SOL    HW112923   0.237   1.218   1.320
  863SOL    HW212924   0.362   1.319   1.291
  864SOL     OW12925   1.288   9.887   2.166
  864SOL    HW112926   1.364   9.933   2.120
  864SOL    HW212927   1.231   9.841   2.098
  865SOL     OW12928   1.025   0.060   3.027
  865SOL    HW112929   1.064   0.142   3.068
  865SOL    HW212930   0.926   0.057   3.046
  866SOL     OW12931   0.726   1.652   2.574
  866SOL    HW112932   0.724   1.730   2.636
  866SOL    HW212933   0.785   1.672   2.496
  867SOL     OW12934   1.420   1.834   0.770
  867SOL    HW112935   1.420   1.758   0.706
  867SOL    HW212936   1.359   1.814   0.846
  868SOL     OW12937   3.092   4.388   2.923
  868SOL    HW112938   3.124   4.483   2.914
  868SOL    HW212939   3.056   4.357   2.835
  869SOL     OW12940   8.183   8.996   1.594
  869SOL    HW112941   8.127   9.075   1.619
  869SOL    HW212942   8.142   8.952   1.514
  870SOL     OW12943   8.566   5.245   0.172
  870SOL    HW112944   8.602   5.163   0.216
  870SOL    HW212945   8.621   5.266   0.091
  871SOL     OW12946   5.366   8.261   2.159
  871SOL    HW112947   5.286   8.203   2.175
  871SOL    HW212948   5.446   8.220   2.201
  872SOL     OW12949   4.838   2.492   1.037
  872SOL    HW112950   4.882   2.403   1.031
  872SOL    HW212951   4.796   2.515   0.949
  873SOL     OW12952   2.453   2.845   2.693
  873SOL    HW112953   2.357   2.837   2.665
  873SOL    HW212954   2.484   2.938   2.675
  874SOL     OW12955   1.505   7.553   1.491
  874SOL    HW112956   1.431   7.538   1.426
  874SOL    HW212957   1.518   7.652   1.505
  875SOL     OW12958   0.027   9.870   2.191
  875SOL    HW112959   9.938   9.838   2.159
  875SOL    HW212960   0.093   9.866   2.116
  876SOL     OW12961   2.645   6.000   0.229
  876SOL    HW112962   2.585   6.014   0.308
  876SOL    HW212963   2.626   6.070   0.160
  877SOL     OW12964   4.342   0.299   2.345
  877SOL    HW112965   4.366   0.390   2.379
  877SOL    HW212966   4.298   0.308   2.255
  878SOL     OW12967   3.211   1.354   2.311
  878SOL    HW112968   3.150   1.279   2.337
  878SOL    HW212969   3.284   1.319   2.252
  879SOL     OW12970   6.409   9.529   3.109
  879SOL    HW112971   6.324   9.479   3.094
  879SOL    HW212972   6.401   9.583   3.192
  880SOL     OW12973   1.252   0.280   2.127
  880SOL    HW112974   1.260   0.217   2.204
  880SOL    HW212975   1.226   0.371   2.161
  881SOL     OW12976   1.516   6.146   0.583
  881SOL    HW112977   1.486   6.231   0.626
  881SOL    HW212978   1.615   6.147   0.573
  882SOL     OW12979   0.636   6.298   0.755
  882SOL    HW112980   0.683   6.219   0.793
  882SOL    HW212981   0.679   6.382   0.788
  883SOL     OW12982   2.023   2.099   0.498
  883SOL    HW112983   2.068   2.184   0.472
  883SOL    HW212984   1.934   2.119   0.539
  884SOL     OW12985   1.273   4.795   1.053
  884SOL    HW112986   1.329   4.830   1.128
  884SOL    HW212987   1.182   4.835   1.058
  885SOL     OW12988   3.308   3.265   2.144
  885SOL    HW112989   3.275   3.318   2.065
  885SOL    HW212990   3.377   3.200   2.113
  886SOL     OW12991   0.842   9.636   2.823
  886SOL    HW112992   0.926   9.679   2.791
  886SOL    HW212993   0.860   9.542   2.852
  887SOL     OW12994   6.801   7.320   2.955
  887SOL    HW112995   6.836   7.333   3.047
  887SOL    HW212996   6.877   7.313   2.891
  888SOL     OW12997   7.398   0.022   1.039
  888SOL    HW112998   7.442   0.092   1.095
  888SOL    HW212999   7.388   9.938   1.092
  889SOL     OW13000   1.671   1.897   2.863
  889SOL    HW113001   1.692   1.990   2.835
  889SOL    HW213002   1.756   1.843   2.865
  890SOL     OW13003   3.192   5.765   1.558
  890SOL    HW113004   3.249   5.693   1.598
  890SOL    HW213005   3.251   5.837   1.522
  891SOL     OW13006   1.511   0.188   0.085
  891SOL    HW113007   1.607   0.192   0.056
  891SOL    HW213008   1.463   0.271   0.054
  892SOL     OW13009   8.146   3.824   0.846
  892SOL    HW113010   8.155   3.854   0.940
  892SOL    HW213011   8.232   3.838   0.797
  893SOL     OW13012   7.060   0.099   2.349
  893SOL    HW113013   7.067   0.197   2.332
  893SOL    HW213014   7.115   0.074   2.429
  894SOL     OW13015   1.695   3.597   0.590
  894SOL    HW113016   1.758   3.557   0.655
  894SOL    HW213017   1.725   3.690   0.567
  895SOL     OW13018   6.927   9.672   3.000
  895SOL    HW113019   6.848   9.632   2.953
  895SOL    HW213020   6.911   9.769   3.017
  896SOL     OW13021   3.762   4.799   3.038
  896SOL    HW113022   3.856   4.770   3.055
  896SOL    HW213023   3.759   4.862   2.961
  897SOL     OW13024   8.402   9.963   1.792
  897SOL    HW113025   8.431   9.868   1.789
  897SOL    HW213026   8.442   0.013   1.715
  898SOL     OW13027   8.758   4.547   1.914
  898SOL    HW113028   8.705   4.577   1.992
  898SOL    HW213029   8.843   4.505   1.945
  899SOL     OW13030   0.531   7.270   0.046
  899SOL    HW113031   0.472   7.350   0.058
  899SOL    HW213032   0.518   7.232   3.995
  900SOL     OW13033   2.749   7.219   0.535
  900SOL    HW113034   2.704   7.161   0.467
  900SOL    HW213035   2.696   7.220   0.620
  901SOL     OW13036   2.664   4.016   0.694
  901SOL    HW113037   2.607   4.015   0.611
  901SOL    HW213038   2.624   3.954   0.762
  902SOL     OW13039   9.824   6.846   1.877
  902SOL    HW113040   9.780   6.813   1.961
  902SOL    HW213041   9.827   6.946   1.878
  903SOL     OW13042   3.918   3.127   0.310
  903SOL    HW113043   3.997   3.167   0.263
  903SOL    HW213044   3.950   3.065   0.381
  904SOL     OW13045   1.785   8.248   2.487
  904SOL    HW113046   1.815   8.343   2.494
  904SOL    HW213047   1.817   8.209   2.401
  905SOL     OW13048   4.478   0.033   0.375
  905SOL    HW113049   4.493   9.937   0.396
  905SOL    HW213050   4.430   0.041   0.288
  906SOL     OW13051   3.381   7.355   1.753
  906SOL    HW113052   3.434   7.272   1.733
  906SOL    HW213053   3.321   7.339   1.831
  907SOL     OW13054   1.073   8.328   1.041
  907SOL    HW113055   0.984   8.319   0.997
  907SOL    HW213056   1.113   8.238   1.057
  908SOL     OW13057   2.611   5.249   2.227
  908SOL    HW113058   2.581   5.196   2.307
  908SOL    HW213059   2.628   5.343   2.254
  909SOL     OW13060   0.829   7.542   2.630
  909SOL    HW113061   0.894   7.478   2.672
  909SOL    HW213062   0.805   7.509   2.538
  910SOL     OW13063   2.098   2.825   2.057
  910SOL    HW113064   2.129   2.920   2.063
  910SOL    HW213065   2.170   2.765   2.091
  911SOL     OW13066   0.729   1.196   1.108
  911SOL    HW113067   0.768   1.106   1.087
  911SOL    HW213068   0.791   1.244   1.171
  912SOL     OW13069   0.212   2.386   0.888
  912SOL    HW113070   0.120   2.408   0.922
  912SOL    HW213071   0.251   2.312   0.943
  913SOL     OW13072   2.279   4.915   0.679
  913SOL    HW113073   2.368   4.870   0.670
  913SOL    HW213074   2.225   4.898   0.596
  914SOL     OW13075   3.266   2.479   2.182
  914SOL    HW113076   3.185   2.444   2.135
  914SOL    HW213077   3.239   2.523   2.267
  915SOL     OW13078   1.045   3.225   2.751
  915SOL    HW113079   1.108   3.292   2.790
  915SOL    HW213080   0.982   3.271   2.689
  916SOL     OW13081   9.570   3.882   2.137
  916SOL    HW113082   9.507   3.955   2.164
  916SOL    HW213083   9.518   3.804   2.103
  917SOL     OW13084   6.778   8.735   2.548
  917SOL    HW113085   6.778   8.778   2.458
  917SOL    HW213086   6.855   8.671   2.555
  918SOL     OW13087   4.002   7.702   0.078
  918SOL    HW113088   4.008   7.715   4.020
  918SOL    HW213089   4.004   7.791   0.124
  919SOL     OW13090   0.386   2.605   1.749
  919SOL    HW113091   0.407   2.514   1.711
  919SOL    HW213092   0.386   2.601   1.849
  920SOL     OW13093   0.581   0.422   3.120
  920SOL    HW113094   0.664   0.367   3.117
  920SOL    HW213095   0.509   0.376   3.068
  921SOL     OW13096   9.650   8.147   1.645
  921SOL    HW113097   9.700   8.120   1.727
  921SOL    HW213098   9.567   8.093   1.637
  922SOL     OW13099   9.410   3.909   1.396
  922SOL    HW113100   9.380   3.842   1.464
  922SOL    HW213101   9.491   3.957   1.430
  923SOL     OW13102   3.727   9.490   1.060
  923SOL    HW113103   3.745   9.399   1.024
  923SOL    HW213104   3.787   9.509   1.138
  924SOL     OW13105   0.193   9.825   1.981
  924SOL    HW113106   0.262   9.861   1.918
  924SOL    HW213107   0.203   9.726   1.989
  925SOL     OW13108   3.610   4.682   2.527
  925SOL    HW113109   3.539   4.734   2.479
  925SOL    HW213110   3.578   4.659   2.619
  926SOL     OW13111   4.011   9.746   2.682
  926SOL    HW113112   4.079   9.674   2.692
  926SOL    HW213113   4.057   9.833   2.663
  927SOL     OW13114   2.379   6.295   0.692
  927SOL    HW113115   2.433   6.308   0.609
  927SOL    HW213116   2.284   6.317   0.674
  928SOL     OW13117   0.443   4.270   1.835
  928SOL    HW113118   0.489   4.300   1.919
  928SOL    HW213119   0.511   4.248   1.765
  929SOL     OW13120   1.763   9.642   1.020
  929SOL    HW113121   1.729   9.731   1.050
  929SOL    HW213122   1.816   9.654   0.936
  930SOL     OW13123   6.904   0.169   2.622
  930SOL    HW113124   6.893   0.137   2.528
  930SOL    HW213125   6.935   0.093   2.679
  931SOL     OW13126   4.126   7.338   2.874
  931SOL    HW113127   4.178   7.392   2.941
  931SOL    HW213128   4.065   7.275   2.922
  932SOL     OW13129   9.956   3.503   0.528
  932SOL    HW113130   9.935   3.409   0.553
  932SOL    HW213131   9.958   3.560   0.610
  933SOL     OW13132   0.876   3.487   1.125
  933SOL    HW113133   0.961   3.510   1.079
  933SOL    HW213134   0.888   3.496   1.224
  934SOL     OW13135   0.912   7.178   0.471
  934SOL    HW113136   0.897   7.107   0.403
  934SOL    HW213137   0.869   7.264   0.440
  935SOL     OW13138   0.795   5.304   1.228
  935SOL    HW113139   0.864   5.375   1.245
  935SOL    HW213140   0.795   5.238   1.303
  936SOL     OW13141   0.450   5.343   2.481
  936SOL    HW113142   0.431   5.329   2.578
  936SOL    HW213143   0.527   5.405   2.470
  937SOL     OW13144   1.044   1.565   2.628
  937SOL    HW113145   1.012   1.502   2.557
  937SOL    HW213146   1.079   1.649   2.585
  938SOL     OW13147   0.158   4.523   1.127
  938SOL    HW113148   0.152   4.525   1.027
  938SOL    HW213149   0.076   4.478   1.164
  939SOL     OW13150   4.467   8.704   3.126
  939SOL    HW113151   4.517   8.786   3.100
  939SOL    HW213152   4.531   8.637   3.166
  940SOL     OW13153   7.655   6.599   2.480
  940SOL    HW113154   7.675   6.502   2.464
  940SOL    HW213155   7.645   6.616   2.578
  941SOL     OW13156   1.875   3.669   2.806
  941SOL    HW113157   1.958   3.713   2.841
  941SOL    HW213158   1.852   3.591   2.864
  942SOL     OW13159   9.006   1.014   2.852
  942SOL    HW113160   9.041   0.942   2.912
  942SOL    HW213161   8.907   1.019   2.859
  943SOL     OW13162   7.622   0.402   0.222
  943SOL    HW113163   7.578   0.373   0.137
  943SOL    HW213164   7.618   0.328   0.288
  944SOL     OW13165   0.520   2.514   1.299
  944SOL    HW113166   0.491   2.459   1.377
  944SOL    HW213167   0.614   2.545   1.314
  945SOL     OW13168   9.440   4.835   0.136
  945SOL    HW113169   9.387   4.917   0.160
  945SOL    HW213170   9.482   4.797   0.219
  946SOL     OW13171   9.177   8.300   2.503
  946SOL    HW113172   9.169   8.290   2.602
  946SOL    HW213173   9.184   8.397   2.480
  947SOL     OW13174   3.122   3.968   3.028
  947SOL    HW113175   3.208   3.949   2.979
  947SOL    HW213176   3.130   4.055   3.076
  948SOL     OW13177   3.237   3.224   2.989
  948SOL    HW113178   3.330   3.210   3.024
  948SOL    HW213179   3.199   3.136   2.960
  949SOL     OW13180   9.462   4.738   2.471
  949SOL    HW113181   9.474   4.836   2.458
  949SOL    HW213182   9.390   4.704   2.410
  950SOL     OW13183   0.877   4.401   0.797
  950SOL    HW113184   0.839   4.352   0.876
  950SOL    HW213185   0.852   4.497   0.802
  951SOL     OW13186   2.330   7.174   2.763
  951SOL    HW113187   2.268   7.100   2.736
  951SOL    HW213188   2.284   7.262   2.752
  952SOL     OW13189   9.717   6.946   1.427
  952SOL    HW113190   9.706   7.011   1.502
  952SOL    HW213191   9.812   6.947   1.396
  953SOL     OW13192   3.510   3.197   3.065
  953SOL    HW113193   3.517   3.098   3.050
  953SOL    HW213194   3.535   3.218   3.159
  954SOL     OW13195   7.515   8.157   3.058
  954SOL    HW113196   7.505   8.226   2.985
  954SOL    HW213197   7.459   8.077   3.036
  955SOL     OW13198   8.637   2.056   3.017
  955SOL    HW113199   8.624   1.957   3.021
  955SOL    HW213200   8.709   2.078   2.951
  956SOL     OW13201   9.042   9.778   1.247
  956SOL    HW113202   9.109   9.728   1.301
  956SOL    HW213203   9.087   9.825   1.171
  957SOL     OW13204   5.214   9.364   2.038
  957SOL    HW113205   5.223   9.408   2.127
  957SOL    HW213206   5.249   9.270   2.043
  958SOL     OW13207   1.058   6.154   1.407
  958SOL    HW113208   1.134   6.195   1.356
  958SOL    HW213209   1.029   6.216   1.480
  959SOL     OW13210   7.886   1.579   3.098
  959SOL    HW113211   7.927   1.584   3.190
  959SOL    HW213212   7.959   1.575   3.030
  960SOL     OW13213   8.875   1.818   1.933
  960SOL    HW113214   8.854   1.910   1.899
  960SOL    HW213215   8.973   1.800   1.923
  961SOL     OW13216   4.400   9.429   1.148
  961SOL    HW113217   4.464   9.439   1.225
  961SOL    HW213218   4.451   9.419   1.063
  962SOL     OW13219   4.092   0.046   2.921
  962SOL    HW113220   4.115   0.017   2.828
  962SOL    HW213221   4.068   9.966   2.976
  963SOL     OW13222   3.065   0.562   3.096
  963SOL    HW113223   3.163   0.577   3.081
  963SOL    HW213224   3.022   0.648   3.122
  964SOL     OW13225   9.468   0.363   0.114
  964SOL    HW113226   9.475   0.344   0.212
  964SOL    HW213227   9.382   0.411   0.095
  965SOL     OW13228   3.228   9.770   2.399
  965SOL    HW113229   3.317   9.752   2.356
  965SOL    HW213230   3.158   9.776   2.328
  966SOL     OW13231   8.558   2.352   0.915
  966SOL    HW113232   8.542   2.359   1.013
  966SOL    HW213233   8.471   2.360   0.866
  967SOL     OW13234   1.266   8.916   2.386
  967SOL    HW113235   1.210   8.906   2.303
  967SOL    HW213236   1.359   8.884   2.367
  968SOL     OW13237   8.351   5.497   1.188
  968SOL    HW113238   8.275   5.470   1.128
  968SOL    HW213239   8.364   5.596   1.184
  969SOL     OW13240   0.977   4.781   1.441
  969SOL    HW113241   0.982   4.686   1.469
  969SOL    HW213242   0.881   4.809   1.433
  970SOL     OW13243   3.334   6.169   2.267
  970SOL    HW113244   3.413   6.183   2.207
  970SOL    HW213245   3.287   6.085   2.242
  971SOL     OW13246   1.997   3.735   2.027
  971SOL    HW113247   2.061   3.777   1.962
  971SOL    HW213248   1.980   3.798   2.103
  972SOL     OW13249   8.655   1.153   1.628
  972SOL    HW113250   8.634   1.196   1.716
  972SOL    HW213251   8.570   1.127   1.583
  973SOL     OW13252   3.839   1.011   2.123
  973SOL    HW113253   3.753   1.014   2.173
  973SOL    HW213254   3.880   1.102   2.121
  974SOL     OW13255   1.637   4.945   1.905
  974SOL    HW113256   1.557   4.939   1.846
  974SOL    HW213257   1.669   5.040   1.909
  975SOL     OW13258   3.072   5.415   2.640
  975SOL    HW113259   3.070   5.489   2.572
  975SOL    HW213260   3.031   5.333   2.600
  976SOL     OW13261   1.711   4.260   1.332
  976SOL    HW113262   1.674   4.300   1.415
  976SOL    HW213263   1.683   4.315   1.253
  977SOL     OW13264   3.513   5.643   1.859
  977SOL    HW113265   3.590   5.582   1.842
  977SOL    HW213266   3.529   5.694   1.944
  978SOL     OW13267   1.518   5.236   1.860
  978SOL    HW113268   1.441   5.175   1.879
  978SOL    HW213269   1.497   5.327   1.895
  979SOL     OW13270   0.314   5.357   1.110
  979SOL    HW113271   0.393   5.387   1.164
  979SOL    HW213272   0.344   5.291   1.042
  980SOL     OW13273   9.350   5.869   0.188
  980SOL    HW113274   9.364   5.847   0.092
  980SOL    HW213275   9.334   5.967   0.198
  981SOL     OW13276   1.565   0.688   3.001
  981SOL    HW113277   1.478   0.690   3.051
  981SOL    HW213278   1.602   0.781   2.994
  982SOL     OW13279   0.934   9.205   2.725
  982SOL    HW113280   0.859   9.184   2.662
  982SOL    HW213281   0.908   9.279   2.786
  983SOL     OW13282   9.294   3.753   3.066
  983SOL    HW113283   9.287   3.653   3.072
  983SOL    HW213284   9.390   3.779   3.052
  984SOL     OW13285   2.287   7.631   1.383
  984SOL    HW113286   2.275   7.538   1.347
  984SOL    HW213287   2.244   7.637   1.474
  985SOL     OW13288   8.683   0.561   2.215
  985SOL    HW113289   8.639   0.530   2.300
  985SOL    HW213290   8.690   0.485   2.151
  986SOL     OW13291   0.296   8.782   1.684
  986SOL    HW113292   0.205   8.799   1.721
  986SOL    HW213293   0.305   8.685   1.661
  987SOL     OW13294   8.489   2.996   0.918
  987SOL    HW113295   8.456   2.915   0.868
  987SOL    HW213296   8.412   3.057   0.935
  988SOL     OW13297   7.962   5.467   1.513
  988SOL    HW113298   7.956   5.370   1.538
  988SOL    HW213299   8.057   5.495   1.508
  989SOL     OW13300   8.332   2.468   2.913
  989SOL    HW113301   8.299   2.561   2.922
  989SOL    HW213302   8.255   2.404   2.922
  990SOL     OW13303   0.291   2.738   1.528
  990SOL    HW113304   0.327   2.695   1.611
  990SOL    HW213305   0.314   2.682   1.449
  991SOL     OW13306   3.330   7.368   0.552
  991SOL    HW113307   3.285   7.433   0.612
  991SOL    HW213308   3.390   7.417   0.489
  992SOL     OW13309   3.489   4.501   0.173
  992SOL    HW113310   3.542   4.523   0.091
  992SOL    HW213311   3.551   4.472   0.246
  993SOL     OW13312   8.671   3.873   0.718
  993SOL    HW113313   8.702   3.779   0.701
  993SOL    HW213314   8.737   3.919   0.778
  994SOL     OW13315   0.336   2.292   3.135
  994SOL    HW113316   0.412   2.352   3.112
  994SOL    HW213317   0.254   2.347   3.153
  995SOL     OW13318   2.607   2.277   2.606
  995SOL    HW113319   2.676   2.330   2.654
  995SOL    HW213320   2.521   2.327   2.605
  996SOL     OW13321   9.078   2.879   0.379
  996SOL    HW113322   9.129   2.875   0.465
  996SOL    HW213323   9.006   2.809   0.380
  997SOL     OW13324   9.685   6.861   0.279
  997SOL    HW113325   9.602   6.893   0.232
  997SOL    HW213326   9.710   6.771   0.244
  998SOL     OW13327   2.600   2.259   3.021
  998SOL    HW113328   2.579   2.179   3.077
  998SOL    HW213329   2.694   2.252   2.988
  999SOL     OW13330   8.735   9.112   2.276
  999SOL    HW113331   8.762   9.089   2.183
  999SOL    HW213332   8.815   9.136   2.330
 1000SOL     OW13333   9.833   9.317   0.122
 1000SOL    HW113334   9.800   9.305   0.028
 1000SOL    HW213335   9.842   9.227   0.166
 1001SOL     OW13336   7.233   9.427   1.346
 1001SOL    HW113337   7.231   9.483   1.263
 1001SOL    HW213338   7.277   9.479   1.420
 1002SOL     OW13339   3.256   5.175   2.296
 1002SOL    HW113340   3.218   5.263   2.324
 1002SOL    HW213341   3.184   5.105   2.297
 1003SOL     OW13342   3.609   8.769   0.786
 1003SOL    HW113343   3.564   8.833   0.848
 1003SOL    HW213344   3.607   8.805   0.693
 1004SOL     OW13345   2.389   7.678   0.023
 1004SOL    HW113346   2.402   7.753   0.088
 1004SOL    HW213347   2.324   7.707   3.993
 1005SOL     OW13348   0.243   9.620   0.830
 1005SOL    HW113349   0.277   9.536   0.788
 1005SOL    HW213350   0.286   9.699   0.786
 1006SOL     OW13351   1.563   7.179   2.979
 1006SOL    HW113352   1.487   7.235   3.011
 1006SOL    HW213353   1.533   7.084   2.969
 1007SOL     OW13354   0.837   8.675   1.258
 1007SOL    HW113355   0.877   8.695   1.348
 1007SOL    HW213356   0.787   8.755   1.225
 1008SOL     OW13357   1.662   7.488   2.274
 1008SOL    HW113358   1.718   7.404   2.276
 1008SOL    HW213359   1.718   7.564   2.242
 1009SOL     OW13360   2.406   3.469   0.395
 1009SOL    HW113361   2.450   3.424   0.473
 1009SOL    HW213362   2.445   3.434   0.310
 1010SOL     OW13363   9.627   8.035   0.265
 1010SOL    HW113364   9.696   8.076   0.205
 1010SOL    HW213365   9.652   7.939   0.282
 1011SOL     OW13366   7.358   3.587   0.966
 1011SOL    HW113367   7.272   3.627   0.936
 1011SOL    HW213368   7.403   3.649   1.030
 1012SOL     OW13369   9.613   2.924   0.065
 1012SOL    HW113370   9.700   2.923   0.015
 1012SOL    HW213371   9.621   2.870   0.149
 1013SOL     OW13372   0.213   5.380   1.513
 1013SOL    HW113373   0.120   5.368   1.478
 1013SOL    HW213374   0.257   5.457   1.467
 1014SOL     OW13375   0.308   7.409   3.080
 1014SOL    HW113376   0.327   7.506   3.061
 1014SOL    HW213377   0.394   7.359   3.084
 1015SOL     OW13378   7.909   0.816   1.480
 1015SOL    HW113379   7.862   0.904   1.472
 1015SOL    HW213380   8.008   0.831   1.477
 1016SOL     OW13381   1.419   1.541   2.944
 1016SOL    HW113382   1.494   1.508   2.888
 1016SOL    HW213383   1.349   1.470   2.952
 1017SOL     OW13384   4.254   8.894   1.408
 1017SOL    HW113385   4.192   8.861   1.337
 1017SOL    HW213386   4.338   8.927   1.365
 1018SOL     OW13387   2.714   6.976   1.529
 1018SOL    HW113388   2.618   6.987   1.503
 1018SOL    HW213389   2.764   6.931   1.455
 1019SOL     OW13390   2.576   0.439   2.101
 1019SOL    HW113391   2.583   0.533   2.133
 1019SOL    HW213392   2.656   0.387   2.132
 1020SOL     OW13393   8.692   8.457   0.548
 1020SOL    HW113394   8.745   8.403   0.613
 1020SOL    HW213395   8.657   8.398   0.476
 1021SOL     OW13396   8.019   7.179   2.152
 1021SOL    HW113397   7.996   7.089   2.115
 1021SOL    HW213398   8.095   7.172   2.216
 1022SOL     OW13399   2.060   8.867   1.246
 1022SOL    HW113400   1.963   8.847   1.236
 1022SOL    HW213401   2.113   8.798   1.195
 1023SOL     OW13402   4.466   9.076   2.868
 1023SOL    HW113403   4.512   9.163   2.847
 1023SOL    HW213404   4.439   9.031   2.783
 1024SOL     OW13405   1.892   3.370   0.351
 1024SOL    HW113406   1.794   3.379   0.365
 1024SOL    HW213407   1.927   3.454   0.309
 1025SOL     OW13408   0.981   8.719   0.225
 1025SOL    HW113409   1.055   8.779   0.255
 1025SOL    HW213410   1.012   8.662   0.149
 1026SOL     OW13411   1.420   5.120   2.298
 1026SOL    HW113412   1.439   5.065   2.379
 1026SOL    HW213413   1.400   5.214   2.325
 1027SOL     OW13414   1.920   4.382   0.989
 1027SOL    HW113415   1.854   4.418   0.922
 1027SOL    HW213416   1.979   4.314   0.944
 1028SOL     OW13417   3.141   1.938   2.597
 1028SOL    HW113418   3.239   1.959   2.598
 1028SOL    HW213419   3.119   1.885   2.515
 1029SOL     OW13420   7.302   9.804   0.198
 1029SOL    HW113421   7.308   9.723   0.255
 1029SOL    HW213422   7.208   9.816   0.166
 1030SOL     OW13423   2.415   4.678   2.470
 1030SOL    HW113424   2.420   4.742   2.393
 1030SOL    HW213425   2.504   4.677   2.517
 1031SOL     OW13426   7.996   8.685   2.758
 1031SOL    HW113427   8.033   8.596   2.785
 1031SOL    HW213428   8.053   8.758   2.794
 1032SOL     OW13429   9.202   1.090   0.248
 1032SOL    HW113430   9.259   1.165   0.215
 1032SOL    HW213431   9.128   1.072   0.183
 1033SOL     OW13432   1.355   0.889   0.646
 1033SOL    HW113433   1.300   0.870   0.728
 1033SOL    HW213434   1.296   0.883   0.566
 1034SOL     OW13435   8.907   8.887   2.520
 1034SOL    HW113436   8.966   8.910   2.443
 1034SOL    HW213437   8.817   8.860   2.487
 1035SOL     OW13438   2.667   0.076   2.288
 1035SOL    HW113439   2.695   0.165   2.252
 1035SOL    HW213440   2.747   0.028   2.325
 1036SOL     OW13441   3.186   0.271   2.915
 1036SOL    HW113442   3.142   0.199   2.861
 1036SOL    HW213443   3.124   0.299   2.988
 1037SOL     OW13444   3.151   1.209   2.648
 1037SOL    HW113445   3.107   1.183   2.562
 1037SOL    HW213446   3.207   1.291   2.632
 1038SOL     OW13447   1.690   1.482   0.851
 1038SOL    HW113448   1.684   1.506   0.754
 1038SOL    HW213449   1.708   1.565   0.905
 1039SOL     OW13450   2.742   4.946   2.183
 1039SOL    HW113451   2.741   4.982   2.089
 1039SOL    HW213452   2.822   4.981   2.231
 1040SOL     OW13453   9.481   1.197   1.498
 1040SOL    HW113454   9.406   1.254   1.532
 1040SOL    HW213455   9.469   1.103   1.530
 1041SOL     OW13456   9.454   1.714   1.575
 1041SOL    HW113457   9.367   1.668   1.561
 1041SOL    HW213458   9.477   1.767   1.493
 1042SOL     OW13459   0.842   4.717   1.782
 1042SOL    HW113460   0.762   4.756   1.737
 1042SOL    HW213461   0.877   4.640   1.727
 1043SOL     OW13462   1.938   7.484   0.213
 1043SOL    HW113463   1.995   7.404   0.194
 1043SOL    HW213464   1.855   7.455   0.262
 1044SOL     OW13465   1.025   1.462   1.043
 1044SOL    HW113466   1.091   1.387   1.049
 1044SOL    HW213467   1.028   1.516   1.127
 1045SOL     OW13468   0.040   1.649   2.851
 1045SOL    HW113469   9.978   1.654   2.773
 1045SOL    HW213470   9.987   1.641   2.935
 1046SOL     OW13471   1.346   9.849   1.479
 1046SOL    HW113472   1.378   9.777   1.541
 1046SOL    HW213473   1.360   9.938   1.521
 1047SOL     OW13474   3.277   0.942   1.462
 1047SOL    HW113475   3.347   0.880   1.429
 1047SOL    HW213476   3.280   0.945   1.562
 1048SOL     OW13477   9.394   2.782   1.791
 1048SOL    HW113478   9.323   2.713   1.802
 1048SOL    HW213479   9.458   2.776   1.868
 1049SOL     OW13480   7.671   0.364   3.206
 1049SOL    HW113481   7.621   0.387   3.290
 1049SOL    HW213482   7.645   0.428   3.134
 1050SOL     OW13483   1.172   4.359   0.495
 1050SOL    HW113484   1.201   4.443   0.540
 1050SOL    HW213485   1.161   4.376   0.397
 1051SOL     OW13486   8.072   8.224   1.429
 1051SOL    HW113487   7.981   8.251   1.458
 1051SOL    HW213488   8.106   8.289   1.360
 1052SOL     OW13489   5.026   8.120   1.823
 1052SOL    HW113490   5.055   8.056   1.894
 1052SOL    HW213491   4.975   8.071   1.752
 1053SOL     OW13492   4.191   7.156   1.781
 1053SOL    HW113493   4.188   7.133   1.684
 1053SOL    HW213494   4.225   7.250   1.791
 1054SOL     OW13495   0.965   3.281   0.736
 1054SOL    HW113496   0.932   3.187   0.740
 1054SOL    HW213497   0.888   3.342   0.716
 1055SOL     OW13498   9.217   4.649   0.839
 1055SOL    HW113499   9.162   4.567   0.858
 1055SOL    HW213500   9.161   4.715   0.789
 1056SOL     OW13501   0.052   4.162   2.823
 1056SOL    HW113502   0.089   4.074   2.853
 1056SOL    HW213503   0.098   4.190   2.739
 1057SOL     OW13504   1.394   5.240   0.601
 1057SOL    HW113505   1.426   5.273   0.689
 1057SOL    HW213506   1.385   5.140   0.604
 1058SOL     OW13507   8.096   8.899   0.608
 1058SOL    HW113508   8.000   8.884   0.585
 1058SOL    HW213509   8.154   8.849   0.544
 1059SOL     OW13510   9.436   0.480   2.470
 1059SOL    HW113511   9.499   0.539   2.419
 1059SOL    HW213512   9.467   0.473   2.564
 1060SOL     OW13513   0.955   9.652   1.684
 1060SOL    HW113514   0.922   9.638   1.777
 1060SOL    HW213515   0.980   9.748   1.671
 1061SOL     OW13516   2.602   5.616   1.871
 1061SOL    HW113517   2.577   5.520   1.860
 1061SOL    HW213518   2.519   5.671   1.881
 1062SOL     OW13519   4.978   3.602   1.266
 1062SOL    HW113520   5.049   3.532   1.253
 1062SOL    HW213521   4.986   3.671   1.194
 1063SOL     OW13522   2.637   5.993   1.122
 1063SOL    HW113523   2.561   5.936   1.092
 1063SOL    HW213524   2.723   5.955   1.089
 1064SOL     OW13525   2.590   0.983   2.454
 1064SOL    HW113526   2.493   0.976   2.475
 1064SOL    HW213527   2.610   1.073   2.416
 1065SOL     OW13528   8.129   0.454   2.054
 1065SOL    HW113529   8.225   0.439   2.034
 1065SOL    HW213530   8.111   0.552   2.062
 1066SOL     OW13531   4.630   1.655   2.350
 1066SOL    HW113532   4.686   1.738   2.358
 1066SOL    HW213533   4.537   1.676   2.379
 1067SOL     OW13534   0.202   0.928   2.144
 1067SOL    HW113535   0.263   0.858   2.181
 1067SOL    HW213536   0.160   0.895   2.059
 1068SOL     OW13537   8.969   2.423   2.748
 1068SOL    HW113538   8.914   2.401   2.667
 1068SOL    HW213539   8.998   2.338   2.792
 1069SOL     OW13540   1.928   3.367   1.289
 1069SOL    HW113541   1.864   3.358   1.212
 1069SOL    HW213542   1.933   3.280   1.338
 1070SOL     OW13543   9.097   5.866   1.788
 1070SOL    HW113544   9.195   5.880   1.791
 1070SOL    HW213545   9.053   5.943   1.742
 1071SOL     OW13546   8.605   2.003   1.554
 1071SOL    HW113547   8.578   1.910   1.526
 1071SOL    HW213548   8.704   2.014   1.542
 1072SOL     OW13549   8.445   1.833   0.159
 1072SOL    HW113550   8.388   1.768   0.209
 1072SOL    HW213551   8.541   1.818   0.182
 1073SOL     OW13552   3.155   6.097   1.300
 1073SOL    HW113553   3.244   6.062   1.328
 1073SOL    HW213554   3.091   6.094   1.377
 1074SOL     OW13555   4.640   7.870   1.444
 1074SOL    HW113556   4.704   7.817   1.498
 1074SOL    HW213557   4.691   7.936   1.388
 1075SOL     OW13558   9.935   1.016   2.695
 1075SOL    HW113559   9.937   1.107   2.654
 1075SOL    HW213560   9.960   1.022   2.792
 1076SOL     OW13561   4.290   3.524   0.917
 1076SOL    HW113562   4.348   3.510   0.997
 1076SOL    HW213563   4.219   3.591   0.939
 1077SOL     OW13564   8.141   8.889   2.867
 1077SOL    HW113565   8.237   8.898   2.893
 1077SOL    HW213566   8.085   8.947   2.926
 1078SOL     OW13567   2.013   7.910   1.590
 1078SOL    HW113568   1.983   7.966   1.513
 1078SOL    HW213569   2.014   7.966   1.673
 1079SOL     OW13570   2.465   2.199   1.944
 1079SOL    HW113571   2.460   2.183   2.042
 1079SOL    HW213572   2.391   2.261   1.917
 1080SOL     OW13573   1.085   7.461   2.446
 1080SOL    HW113574   1.042   7.400   2.512
 1080SOL    HW213575   1.184   7.448   2.449
 1081SOL     OW13576   3.005   3.055   1.966
 1081SOL    HW113577   3.014   3.144   2.011
 1081SOL    HW213578   2.909   3.026   1.970
 1082SOL     OW13579   3.423   0.728   0.141
 1082SOL    HW113580   3.328   0.759   0.152
 1082SOL    HW213581   3.425   0.629   0.132
 1083SOL     OW13582   0.400   3.982   2.943
 1083SOL    HW113583   0.308   3.955   2.915
 1083SOL    HW213584   0.395   4.064   3.000
 1084SOL     OW13585   0.065   0.103   0.595
 1084SOL    HW113586   9.981   0.109   0.540
 1084SOL    HW213587   0.042   0.068   0.686
 1085SOL     OW13588   9.699   6.466   0.959
 1085SOL    HW113589   9.661   6.526   1.029
 1085SOL    HW213590   9.655   6.485   0.871
 1086SOL     OW13591   6.112   0.159   2.869
 1086SOL    HW113592   6.018   0.175   2.840
 1086SOL    HW213593   6.124   0.190   2.963
 1087SOL     OW13594   2.645   5.069   1.550
 1087SOL    HW113595   2.669   5.042   1.643
 1087SOL    HW213596   2.563   5.019   1.521
 1088SOL     OW13597   9.976   6.458   0.960
 1088SOL    HW113598   0.012   6.393   0.894
 1088SOL    HW213599   9.876   6.453   0.961
 1089SOL     OW13600   8.715   3.394   0.529
 1089SOL    HW113601   8.733   3.471   0.590
 1089SOL    HW213602   8.628   3.409   0.482
 1090SOL     OW13603   4.140   2.561   2.992
 1090SOL    HW113604   4.235   2.539   2.970
 1090SOL    HW213605   4.109   2.637   2.934
 1091SOL     OW13606   2.733   7.981   2.790
 1091SOL    HW113607   2.672   7.925   2.733
 1091SOL    HW213608   2.694   7.990   2.882
 1092SOL     OW13609   0.265   0.600   2.997
 1092SOL    HW113610   0.166   0.612   2.998
 1092SOL    HW213611   0.289   0.524   2.937
 1093SOL     OW13612   9.689   2.930   2.810
 1093SOL    HW113613   9.598   2.963   2.784
 1093SOL    HW213614   9.681   2.868   2.888
 1094SOL     OW13615   4.572   8.245   1.112
 1094SOL    HW113616   4.540   8.211   1.201
 1094SOL    HW213617   4.643   8.184   1.077
 1095SOL     OW13618   9.921   2.447   2.100
 1095SOL    HW113619   9.857   2.446   2.024
 1095SOL    HW213620   9.901   2.523   2.161
 1096SOL     OW13621   0.018   7.907   1.278
 1096SOL    HW113622   9.924   7.917   1.314
 1096SOL    HW213623   0.019   7.929   1.181
 1097SOL     OW13624   8.201   8.274   2.631
 1097SOL    HW113625   8.183   8.182   2.665
 1097SOL    HW213626   8.149   8.289   2.547
 1098SOL     OW13627   5.351   1.645   1.539
 1098SOL    HW113628   5.288   1.579   1.496
 1098SOL    HW213629   5.339   1.642   1.638
 1099SOL     OW13630   8.386   2.078   0.051
 1099SOL    HW113631   8.403   2.139   0.128
 1099SOL    HW213632   8.403   1.983   0.078
 1100SOL     OW13633   3.593   7.547   1.405
 1100SOL    HW113634   3.502   7.570   1.372
 1100SOL    HW213635   3.593   7.544   1.505
 1101SOL     OW13636   9.517   4.014   0.644
 1101SOL    HW113637   9.569   3.969   0.718
 1101SOL    HW213638   9.575   4.023   0.563
 1102SOL     OW13639   2.393   6.468   0.908
 1102SOL    HW113640   2.346   6.421   0.983
 1102SOL    HW213641   2.394   6.408   0.828
 1103SOL     OW13642   8.538   3.386   0.829
 1103SOL    HW113643   8.590   3.301   0.827
 1103SOL    HW213644   8.586   3.454   0.885
 1104SOL     OW13645   3.412   9.370   1.957
 1104SOL    HW113646   3.404   9.411   2.048
 1104SOL    HW213647   3.376   9.434   1.889
 1105SOL     OW13648   9.621   7.320   1.953
 1105SOL    HW113649   9.620   7.221   1.939
 1105SOL    HW213650   9.697   7.344   2.014
 1106SOL     OW13651   3.620   1.726   0.504
 1106SOL    HW113652   3.577   1.677   0.429
 1106SOL    HW213653   3.697   1.779   0.469
 1107SOL     OW13654   4.668   0.719   1.536
 1107SOL    HW113655   4.677   0.757   1.628
 1107SOL    HW213656   4.711   0.780   1.470
 1108SOL     OW13657   3.519   3.566   0.666
 1108SOL    HW113658   3.436   3.589   0.716
 1108SOL    HW213659   3.496   3.538   0.573
 1109SOL     OW13660   9.292   9.452   0.454
 1109SOL    HW113661   9.249   9.537   0.482
 1109SOL    HW213662   9.345   9.414   0.530
 1110SOL     OW13663   4.839   7.069   2.657
 1110SOL    HW113664   4.907   6.996   2.659
 1110SOL    HW213665   4.749   7.033   2.681
 1111SOL     OW13666   1.128   1.139   0.565
 1111SOL    HW113667   1.184   1.195   0.626
 1111SOL    HW213668   1.055   1.095   0.617
 1112SOL     OW13669   1.728   5.752   2.969
 1112SOL    HW113670   1.647   5.808   2.951
 1112SOL    HW213671   1.810   5.806   2.951
 1113SOL     OW13672   6.002   9.794   2.419
 1113SOL    HW113673   6.012   9.845   2.334
 1113SOL    HW213674   5.993   9.859   2.495
 1114SOL     OW13675   2.403   3.754   2.038
 1114SOL    HW113676   2.371   3.841   2.001
 1114SOL    HW213677   2.412   3.687   1.964
 1115SOL     OW13678   3.551   7.827   2.366
 1115SOL    HW113679   3.497   7.802   2.286
 1115SOL    HW213680   3.494   7.882   2.428
 1116SOL     OW13681   2.551   4.922   1.267
 1116SOL    HW113682   2.493   4.921   1.348
 1116SOL    HW213683   2.576   5.017   1.245
 1117SOL     OW13684   4.264   2.883   1.733
 1117SOL    HW113685   4.200   2.806   1.736
 1117SOL    HW213686   4.247   2.944   1.810
 1118SOL     OW13687   7.843   3.685   0.554
 1118SOL    HW113688   7.788   3.623   0.610
 1118SOL    HW213689   7.782   3.741   0.498
 1119SOL     OW13690   1.055   9.376   1.630
 1119SOL    HW113691   1.007   9.461   1.649
 1119SOL    HW213692   1.149   9.396   1.604
 1120SOL     OW13693   2.525   3.263   3.117
 1120SOL    HW113694   2.580   3.303   3.044
 1120SOL    HW213695   2.493   3.335   3.179
 1121SOL     OW13696   4.320   8.399   1.342
 1121SOL    HW113697   4.365   8.310   1.334
 1121SOL    HW213698   4.273   8.420   1.256
 1122SOL     OW13699   2.535   7.644   0.826
 1122SOL    HW113700   2.549   7.604   0.916
 1122SOL    HW213701   2.613   7.623   0.767
 1123SOL     OW13702   4.081   6.079   2.903
 1123SOL    HW113703   4.135   6.143   2.848
 1123SOL    HW213704   3.988   6.112   2.911
 1124SOL     OW13705   2.258   2.373   1.890
 1124SOL    HW113706   2.218   2.329   1.810
 1124SOL    HW213707   2.186   2.390   1.958
 1125SOL     OW13708   1.589   9.389   2.715
 1125SOL    HW113709   1.681   9.389   2.753
 1125SOL    HW213710   1.593   9.361   2.619
 1126SOL     OW13711   2.219   1.341   2.976
 1126SOL    HW113712   2.120   1.331   2.969
 1126SOL    HW213713   2.259   1.348   2.885
 1127SOL     OW13714   2.196   9.045   0.310
 1127SOL    HW113715   2.276   8.998   0.273
 1127SOL    HW213716   2.117   8.984   0.306
 1128SOL     OW13717   8.071   1.777   2.680
 1128SOL    HW113718   8.016   1.808   2.757
 1128SOL    HW213719   8.052   1.835   2.600
 1129SOL     OW13720   3.865   7.511   2.226
 1129SOL    HW113721   3.935   7.552   2.285
 1129SOL    HW213722   3.777   7.513   2.273
 1130SOL     OW13723   2.436   9.737   2.798
 1130SOL    HW113724   2.351   9.702   2.838
 1130SOL    HW213725   2.419   9.767   2.704
 1131SOL     OW13726   3.074   3.996   0.859
 1131SOL    HW113727   3.089   4.080   0.806
 1131SOL    HW213728   3.161   3.953   0.880
 1132SOL     OW13729   2.488   7.469   0.572
 1132SOL    HW113730   2.463   7.406   0.499
 1132SOL    HW213731   2.451   7.435   0.659
 1133SOL     OW13732   0.163   8.029   2.408
 1133SOL    HW113733   0.200   7.940   2.435
 1133SOL    HW213734   0.236   8.085   2.369
 1134SOL     OW13735   9.216   7.658   1.112
 1134SOL    HW113736   9.150   7.604   1.061
 1134SOL    HW213737   9.235   7.613   1.200
 1135SOL     OW13738   4.944   2.226   1.053
 1135SOL    HW113739   4.860   2.172   1.056
 1135SOL    HW213740   4.964   2.262   1.144
 1136SOL     OW13741   1.103   8.507   2.968
 1136SOL    HW113742   1.057   8.473   2.886
 1136SOL    HW213743   1.170   8.577   2.942
 1137SOL     OW13744   1.691   8.104   3.102
 1137SOL    HW113745   1.715   8.200   3.087
 1137SOL    HW213746   1.593   8.097   3.120
 1138SOL     OW13747   2.831   0.852   2.076
 1138SOL    HW113748   2.811   0.823   1.982
 1138SOL    HW213749   2.930   0.851   2.090
 1139SOL     OW13750   3.179   9.128   2.923
 1139SOL    HW113751   3.171   9.080   3.010
 1139SOL    HW213752   3.273   9.162   2.913
 1140SOL     OW13753   3.215   6.761   2.542
 1140SOL    HW113754   3.300   6.811   2.560
 1140SOL    HW213755   3.163   6.751   2.627
 1141SOL     OW13756   0.061   5.291   1.165
 1141SOL    HW113757   0.058   5.192   1.156
 1141SOL    HW213758   0.155   5.323   1.154
 1142SOL     OW13759   1.601   2.066   2.487
 1142SOL    HW113760   1.581   1.977   2.527
 1142SOL    HW213761   1.517   2.120   2.481
 1143SOL     OW13762   3.985   8.647   2.365
 1143SOL    HW113763   3.969   8.562   2.415
 1143SOL    HW213764   3.917   8.716   2.394
 1144SOL     OW13765   8.699   2.461   2.208
 1144SOL    HW113766   8.660   2.489   2.296
 1144SOL    HW213767   8.768   2.391   2.223
 1145SOL     OW13768   0.628   2.241   1.665
 1145SOL    HW113769   0.681   2.285   1.738
 1145SOL    HW213770   0.617   2.144   1.686
 1146SOL     OW13771   7.687   8.781   1.459
 1146SOL    HW113772   7.775   8.769   1.506
 1146SOL    HW213773   7.620   8.719   1.500
 1147SOL     OW13774   8.549   0.623   0.549
 1147SOL    HW113775   8.458   0.653   0.523
 1147SOL    HW213776   8.575   0.542   0.495
 1148SOL     OW13777   3.012   6.976   1.020
 1148SOL    HW113778   3.075   7.053   1.011
 1148SOL    HW213779   3.046   6.913   1.090
 1149SOL     OW13780   2.944   2.628   2.199
 1149SOL    HW113781   2.959   2.544   2.147
 1149SOL    HW213782   3.005   2.700   2.165
 1150SOL     OW13783   9.123   9.194   0.166
 1150SOL    HW113784   9.133   9.293   0.177
 1150SOL    HW213785   9.183   9.162   0.093
 1151SOL     OW13786   8.955   9.284   0.492
 1151SOL    HW113787   8.908   9.210   0.444
 1151SOL    HW213788   9.052   9.284   0.468
 1152SOL     OW13789   2.039   8.995   2.840
 1152SOL    HW113790   2.005   9.078   2.884
 1152SOL    HW213791   1.984   8.975   2.759
 1153SOL     OW13792   3.347   5.697   2.228
 1153SOL    HW113793   3.351   5.688   2.327
 1153SOL    HW213794   3.436   5.725   2.193
 1154SOL     OW13795   8.712   9.986   2.955
 1154SOL    HW113796   8.691   0.047   2.878
 1154SOL    HW213797   8.656   9.904   2.949
 1155SOL     OW13798   8.834   0.120   0.957
 1155SOL    HW113799   8.765   0.073   1.013
 1155SOL    HW213800   8.912   0.144   1.014
 1156SOL     OW13801   5.842   9.082   3.089
 1156SOL    HW113802   5.753   9.038   3.104
 1156SOL    HW213803   5.913   9.013   3.081
 1157SOL     OW13804   1.977   8.004   1.852
 1157SOL    HW113805   1.879   8.000   1.871
 1157SOL    HW213806   2.022   7.921   1.888
 1158SOL     OW13807   3.366   2.459   1.747
 1158SOL    HW113808   3.432   2.390   1.778
 1158SOL    HW213809   3.408   2.550   1.753
 1159SOL     OW13810   8.391   5.175   2.418
 1159SOL    HW113811   8.480   5.165   2.373
 1159SOL    HW213812   8.337   5.093   2.403
 1160SOL     OW13813   0.427   3.183   1.529
 1160SOL    HW113814   0.414   3.273   1.489
 1160SOL    HW213815   0.496   3.132   1.477
 1161SOL     OW13816   1.832   5.373   0.311
 1161SOL    HW113817   1.761   5.332   0.369
 1161SOL    HW213818   1.913   5.393   0.366
 1162SOL     OW13819   9.370   0.086   2.513
 1162SOL    HW113820   9.366   0.146   2.593
 1162SOL    HW213821   9.462   0.048   2.505
 1163SOL     OW13822   1.967   2.708   1.604
 1163SOL    HW113823   1.958   2.768   1.683
 1163SOL    HW213824   1.916   2.623   1.620
 1164SOL     OW13825   4.903   6.990   3.099
 1164SOL    HW113826   4.959   6.954   3.174
 1164SOL    HW213827   4.947   7.072   3.061
 1165SOL     OW13828   1.086   0.656   0.357
 1165SOL    HW113829   1.017   0.665   0.284
 1165SOL    HW213830   1.118   0.748   0.383
 1166SOL     OW13831   4.962   0.833   2.104
 1166SOL    HW113832   5.028   0.892   2.057
 1166SOL    HW213833   4.943   0.870   2.195
 1167SOL     OW13834   9.937   4.090   0.648
 1167SOL    HW113835   9.954   4.011   0.707
 1167SOL    HW213836   9.848   4.081   0.605
 1168SOL     OW13837   1.245   9.538   2.625
 1168SOL    HW113838   1.201   9.454   2.591
 1168SOL    HW213839   1.311   9.570   2.557
 1169SOL     OW13840   7.954   6.501   2.822
 1169SOL    HW113841   7.984   6.589   2.785
 1169SOL    HW213842   8.033   6.440   2.831
 1170SOL     OW13843   4.906   7.504   2.749
 1170SOL    HW113844   4.841   7.578   2.732
 1170SOL    HW213845   4.858   7.426   2.787
 1171SOL     OW13846   1.063   8.880   0.937
 1171SOL    HW113847   1.128   8.940   0.890
 1171SOL    HW213848   1.097   8.861   1.030
 1172SOL     OW13849   8.147   5.682   0.619
 1172SOL    HW113850   8.170   5.665   0.714
 1172SOL    HW213851   8.225   5.658   0.561
 1173SOL     OW13852   7.157   9.544   2.940
 1173SOL    HW113853   7.226   9.616   2.936
 1173SOL    HW213854   7.071   9.582   2.973
 1174SOL     OW13855   3.873   0.847   2.936
 1174SOL    HW113856   3.936   0.924   2.926
 1174SOL    HW213857   3.925   0.762   2.945
 1175SOL     OW13858   3.124   7.684   2.276
 1175SOL    HW113859   3.127   7.586   2.295
 1175SOL    HW213860   3.068   7.700   2.194
 1176SOL     OW13861   5.955   7.404   2.917
 1176SOL    HW113862   6.034   7.368   2.966
 1176SOL    HW213863   5.984   7.436   2.827
 1177SOL     OW13864   2.795   2.566   0.543
 1177SOL    HW113865   2.839   2.654   0.558
 1177SOL    HW213866   2.704   2.581   0.505
 1178SOL     OW13867   9.133   3.864   2.154
 1178SOL    HW113868   9.059   3.928   2.135
 1178SOL    HW213869   9.221   3.913   2.154
 1179SOL     OW13870   7.851   1.505   0.172
 1179SOL    HW113871   7.885   1.411   0.163
 1179SOL    HW213872   7.908   1.555   0.237
 1180SOL     OW13873   1.579   2.670   0.183
 1180SOL    HW113874   1.614   2.753   0.140
 1180SOL    HW213875   1.601   2.672   0.281
 1181SOL     OW13876   4.677   1.120   2.222
 1181SOL    HW113877   4.583   1.092   2.206
 1181SOL    HW213878   4.679   1.214   2.256
 1182SOL     OW13879   8.404   7.965   1.651
 1182SOL    HW113880   8.322   8.022   1.649
 1182SOL    HW213881   8.484   8.020   1.629
 1183SOL     OW13882   1.653   9.914   2.965
 1183SOL    HW113883   1.572   9.857   2.952
 1183SOL    HW213884   1.625   0.010   2.967
 1184SOL     OW13885   3.170   2.093   0.336
 1184SOL    HW113886   3.102   2.055   0.273
 1184SOL    HW213887   3.219   2.019   0.381
 1185SOL     OW13888   1.045   8.204   0.637
 1185SOL    HW113889   1.139   8.171   0.638
 1185SOL    HW213890   0.985   8.131   0.603
 1186SOL     OW13891   2.763   1.061   1.393
 1186SOL    HW113892   2.847   1.015   1.422
 1186SOL    HW213893   2.705   1.076   1.473
 1187SOL     OW13894   2.198   0.155   0.353
 1187SOL    HW113895   2.255   0.228   0.314
 1187SOL    HW213896   2.169   0.180   0.445
 1188SOL     OW13897   0.124   1.663   1.849
 1188SOL    HW113898   0.212   1.644   1.894
 1188SOL    HW213899   0.135   1.656   1.750
 1189SOL     OW13900   9.716   0.021   2.837
 1189SOL    HW113901   9.754   0.004   2.928
 1189SOL    HW213902   9.619   9.996   2.836
 1190SOL     OW13903   2.762   8.251   2.743
 1190SOL    HW113904   2.678   8.290   2.782
 1190SOL    HW213905   2.761   8.152   2.754
 1191SOL     OW13906   2.472   9.330   0.072
 1191SOL    HW113907   2.408   9.327   0.149
 1191SOL    HW213908   2.495   9.425   0.052
 1192SOL     OW13909   4.148   1.304   1.425
 1192SOL    HW113910   4.138   1.346   1.335
 1192SOL    HW213911   4.183   1.211   1.414
 1193SOL     OW13912   9.241   5.177   0.514
 1193SOL    HW113913   9.328   5.213   0.547
 1193SOL    HW213914   9.245   5.078   0.507
 1194SOL     OW13915   8.584   8.962   0.375
 1194SOL    HW113916   8.511   9.025   0.346
 1194SOL    HW213917   8.572   8.874   0.329
 1195SOL     OW13918   0.361   3.338   1.162
 1195SOL    HW113919   0.318   3.414   1.113
 1195SOL    HW213920   0.298   3.259   1.163
 1196SOL     OW13921   9.241   6.038   1.362
 1196SOL    HW113922   9.288   5.967   1.310
 1196SOL    HW213923   9.268   6.128   1.328
 1197SOL     OW13924   9.699   9.232   2.500
 1197SOL    HW113925   9.599   9.241   2.505
 1197SOL    HW213926   9.734   9.289   2.425
 1198SOL     OW13927   0.938   9.151   1.513
 1198SOL    HW113928   1.011   9.090   1.479
 1198SOL    HW213929   0.979   9.231   1.555
 1199SOL     OW13930   9.231   1.631   2.390
 1199SOL    HW113931   9.139   1.600   2.364
 1199SOL    HW213932   9.226   1.678   2.478
 1200SOL     OW13933   9.189   6.120   2.428
 1200SOL    HW113934   9.162   6.155   2.517
 1200SOL    HW213935   9.108   6.100   2.373
 1201SOL     OW13936   9.881   3.859   0.324
 1201SOL    HW113937   9.980   3.878   0.322
 1201SOL    HW213938   9.859   3.794   0.251
 1202SOL     OW13939   0.558   6.038   1.038
 1202SOL    HW113940   0.466   6.023   1.001
 1202SOL    HW213941   0.620   6.062   0.964
 1203SOL     OW13942   6.284   7.987   2.753
 1203SOL    HW113943   6.257   8.058   2.688
 1203SOL    HW213944   6.284   8.025   2.846
 1204SOL     OW13945   8.546   7.917   2.571
 1204SOL    HW113946   8.515   7.908   2.476
 1204SOL    HW213947   8.606   7.997   2.579
 1205SOL     OW13948   9.906   2.147   0.520
 1205SOL    HW113949   9.946   2.057   0.532
 1205SOL    HW213950   9.830   2.159   0.585
 1206SOL     OW13951   8.228   9.194   2.935
 1206SOL    HW113952   8.224   9.279   2.882
 1206SOL    HW213953   8.136   9.166   2.961
 1207SOL     OW13954   4.554   3.733   0.995
 1207SOL    HW113955   4.504   3.806   1.039
 1207SOL    HW213956   4.524   3.724   0.900
 1208SOL     OW13957   0.175   7.174   2.376
 1208SOL    HW113958   0.181   7.165   2.276
 1208SOL    HW213959   0.132   7.092   2.414
 1209SOL     OW13960   9.282   4.799   3.024
 1209SOL    HW113961   9.209   4.761   3.081
 1209SOL    HW213962   9.330   4.725   2.977
 1210SOL     OW13963   9.132   6.872   1.566
 1210SOL    HW113964   9.096   6.947   1.510
 1210SOL    HW213965   9.221   6.845   1.530
 1211SOL     OW13966   1.439   4.285   0.501
 1211SOL    HW113967   1.341   4.299   0.514
 1211SOL    HW213968   1.483   4.269   0.589
 1212SOL     OW13969   0.265   7.348   1.951
 1212SOL    HW113970   0.243   7.384   1.860
 1212SOL    HW213971   0.364   7.348   1.964
 1213SOL     OW13972   4.777   1.126   3.127
 1213SOL    HW113973   4.872   1.153   3.144
 1213SOL    HW213974   4.769   1.088   3.034
 1214SOL     OW13975   1.325   8.837   1.746
 1214SOL    HW113976   1.230   8.858   1.770
 1214SOL    HW213977   1.373   8.922   1.724
 1215SOL     OW13978   3.343   9.839   1.872
 1215SOL    HW113979   3.284   9.888   1.936
 1215SOL    HW213980   3.397   9.905   1.819
 1216SOL     OW13981   2.922   9.002   2.131
 1216SOL    HW113982   2.892   9.047   2.215
 1216SOL    HW213983   2.998   8.941   2.151
 1217SOL     OW13984   1.587   6.123   2.925
 1217SOL    HW113985   1.663   6.120   2.990
 1217SOL    HW213986   1.534   6.039   2.931
 1218SOL     OW13987   9.715   9.031   1.952
 1218SOL    HW113988   9.643   8.961   1.942
 1218SOL    HW213989   9.694   9.108   1.892
 1219SOL     OW13990   1.475   3.994   2.723
 1219SOL    HW113991   1.536   4.011   2.645
 1219SOL    HW213992   1.465   4.078   2.776
 1220SOL     OW13993   5.233   3.629   1.018
 1220SOL    HW113994   5.221   3.559   1.089
 1220SOL    HW213995   5.325   3.621   0.980
 1221SOL     OW13996   8.536   9.777   2.622
 1221SOL    HW113997   8.479   9.738   2.550
 1221SOL    HW213998   8.631   9.780   2.592
 1222SOL     OW13999   3.538   4.610   2.781
 1222SOL    HW114000   3.479   4.532   2.762
 1222SOL    HW214001   3.594   4.592   2.862
 1223SOL     OW14002   3.713   8.351   0.034
 1223SOL    HW114003   3.688   8.416   0.106
 1223SOL    HW214004   3.716   8.397   3.987
 1224SOL     OW14005   7.284   9.573   0.359
 1224SOL    HW114006   7.196   9.573   0.405
 1224SOL    HW214007   7.351   9.521   0.413
 1225SOL     OW14008   0.876   6.878   2.607
 1225SOL    HW114009   0.975   6.869   2.619
 1225SOL    HW214010   0.841   6.797   2.562
 1226SOL     OW14011   5.446   7.697   2.288
 1226SOL    HW114012   5.499   7.613   2.274
 1226SOL    HW214013   5.466   7.734   2.379
 1227SOL     OW14014   3.017   2.187   0.998
 1227SOL    HW114015   2.957   2.183   0.918
 1227SOL    HW214016   3.078   2.107   0.997
 1228SOL     OW14017   2.577   2.181   0.088
 1228SOL    HW114018   2.549   2.252   0.153
 1228SOL    HW214019   2.671   2.199   0.058
 1229SOL     OW14020   0.810   1.241   0.636
 1229SOL    HW114021   0.788   1.228   0.540
 1229SOL    HW214022   0.848   1.157   0.674
 1230SOL     OW14023   2.574   5.193   1.212
 1230SOL    HW114024   2.554   5.279   1.259
 1230SOL    HW214025   2.559   5.205   1.114
 1231SOL     OW14026   7.868   0.963   2.321
 1231SOL    HW114027   7.887   0.985   2.416
 1231SOL    HW214028   7.849   0.865   2.312
 1232SOL     OW14029   7.756   1.764   2.812
 1232SOL    HW114030   7.822   1.829   2.850
 1232SOL    HW214031   7.673   1.764   2.867
 1233SOL     OW14032   4.559   4.554   1.604
 1233SOL    HW114033   4.624   4.516   1.539
 1233SOL    HW214034   4.608   4.587   1.685
 1234SOL     OW14035   2.183   3.659   0.300
 1234SOL    HW114036   2.246   3.585   0.324
 1234SOL    HW214037   2.234   3.736   0.263
 1235SOL     OW14038   9.851   8.214   1.476
 1235SOL    HW114039   9.924   8.256   1.530
 1235SOL    HW214040   9.772   8.196   1.535
 1236SOL     OW14041   8.351   7.024   1.901
 1236SOL    HW114042   8.436   7.038   1.849
 1236SOL    HW214043   8.336   6.926   1.914
 1237SOL     OW14044   1.370   1.754   1.552
 1237SOL    HW114045   1.356   1.670   1.499
 1237SOL    HW214046   1.282   1.795   1.574
 1238SOL     OW14047   2.163   1.260   0.529
 1238SOL    HW114048   2.103   1.314   0.589
 1238SOL    HW214049   2.175   1.169   0.568
 1239SOL     OW14050   3.469   1.368   0.479
 1239SOL    HW114051   3.412   1.426   0.535
 1239SOL    HW214052   3.539   1.324   0.535
 1240SOL     OW14053   2.093   4.416   1.754
 1240SOL    HW114054   2.018   4.470   1.793
 1240SOL    HW214055   2.085   4.416   1.655
 1241SOL     OW14056   4.830   7.946   0.133
 1241SOL    HW114057   4.750   8.006   0.137
 1241SOL    HW214058   4.911   8.001   0.115
 1242SOL     OW14059   8.664   5.990   2.486
 1242SOL    HW114060   8.613   5.925   2.428
 1242SOL    HW214061   8.681   6.074   2.434
 1243SOL     OW14062   8.299   6.499   2.242
 1243SOL    HW114063   8.293   6.435   2.166
 1243SOL    HW214064   8.207   6.534   2.263
 1244SOL     OW14065   0.789   7.401   0.366
 1244SOL    HW114066   0.816   7.421   0.272
 1244SOL    HW214067   0.785   7.486   0.419
 1245SOL     OW14068   7.437   2.300   0.842
 1245SOL    HW114069   7.438   2.233   0.768
 1245SOL    HW214070   7.356   2.359   0.833
 1246SOL     OW14071   2.794   5.649   2.061
 1246SOL    HW114072   2.800   5.746   2.083
 1246SOL    HW214073   2.726   5.634   1.990
 1247SOL     OW14074   9.630   3.660   0.714
 1247SOL    HW114075   9.622   3.561   0.726
 1247SOL    HW214076   9.651   3.680   0.619
 1248SOL     OW14077   8.945   6.231   0.099
 1248SOL    HW114078   8.969   6.135   0.111
 1248SOL    HW214079   8.944   6.253   0.001
 1249SOL     OW14080   2.540   6.276   2.347
 1249SOL    HW114081   2.609   6.345   2.324
 1249SOL    HW214082   2.454   6.322   2.371
 1250SOL     OW14083   7.548   8.792   1.832
 1250SOL    HW114084   7.467   8.762   1.883
 1250SOL    HW214085   7.624   8.808   1.895
 1251SOL     OW14086   9.326   9.083   0.646
 1251SOL    HW114087   9.312   8.989   0.675
 1251SOL    HW214088   9.290   9.094   0.553
 1252SOL     OW14089   7.474   9.573   1.023
 1252SOL    HW114090   7.404   9.505   1.002
 1252SOL    HW214091   7.503   9.619   0.939
 1253SOL     OW14092   2.627   6.575   1.447
 1253SOL    HW114093   2.570   6.642   1.400
 1253SOL    HW214094   2.582   6.546   1.532
 1254SOL     OW14095   1.485   1.147   0.639
 1254SOL    HW114096   1.456   1.052   0.651
 1254SOL    HW214097   1.414   1.209   0.672
 1255SOL     OW14098   0.329   7.420   1.240
 1255SOL    HW114099   0.321   7.509   1.195
 1255SOL    HW214100   0.394   7.362   1.191
 1256SOL     OW14101   3.410   1.978   2.592
 1256SOL    HW114102   3.455   2.027   2.518
 1256SOL    HW214103   3.431   1.880   2.585
 1257SOL     OW14104   8.224   6.777   0.165
 1257SOL    HW114105   8.187   6.869   0.154
 1257SOL    HW214106   8.150   6.711   0.161
 1258SOL     OW14107   1.495   1.207   1.541
 1258SOL    HW114108   1.571   1.269   1.525
 1258SOL    HW214109   1.440   1.198   1.458
 1259SOL     OW14110   6.982   8.781   2.985
 1259SOL    HW114111   7.047   8.708   2.965
 1259SOL    HW214112   6.897   8.766   2.934
 1260SOL     OW14113   8.559   2.043   1.131
 1260SOL    HW114114   8.556   1.946   1.109
 1260SOL    HW214115   8.642   2.063   1.184
 1261SOL     OW14116   4.048   2.296   0.669
 1261SOL    HW114117   3.975   2.228   0.672
 1261SOL    HW214118   4.011   2.386   0.692
 1262SOL     OW14119   9.262   2.072   1.481
 1262SOL    HW114120   9.200   2.013   1.430
 1262SOL    HW214121   9.295   2.144   1.420
 1263SOL     OW14122   3.037   6.423   0.545
 1263SOL    HW114123   2.977   6.343   0.543
 1263SOL    HW214124   3.075   6.438   0.455
 1264SOL     OW14125   3.304   2.291   0.479
 1264SOL    HW114126   3.252   2.357   0.533
 1264SOL    HW214127   3.241   2.222   0.442
 1265SOL     OW14128   8.423   8.912   1.671
 1265SOL    HW114129   8.485   8.990   1.683
 1265SOL    HW214130   8.332   8.946   1.646
 1266SOL     OW14131   9.270   8.713   1.064
 1266SOL    HW114132   9.283   8.647   0.991
 1266SOL    HW214133   9.187   8.766   1.047
 1267SOL     OW14134   1.410   3.398   1.412
 1267SOL    HW114135   1.431   3.304   1.440
 1267SOL    HW214136   1.474   3.461   1.456
 1268SOL     OW14137   8.036   5.146   0.405
 1268SOL    HW114138   8.133   5.163   0.422
 1268SOL    HW214139   7.984   5.230   0.422
 1269SOL     OW14140   1.544   3.966   1.572
 1269SOL    HW114141   1.489   4.013   1.503
 1269SOL    HW214142   1.492   3.889   1.608
 1270SOL     OW14143   1.212   5.347   1.778
 1270SOL    HW114144   1.126   5.399   1.779
 1270SOL    HW214145   1.286   5.404   1.816
 1271SOL     OW14146   2.335   0.655   2.384
 1271SOL    HW114147   2.310   0.560   2.403
 1271SOL    HW214148   2.431   0.669   2.407
 1272SOL     OW14149   0.156   1.195   1.802
 1272SOL    HW114150   0.175   1.268   1.735
 1272SOL    HW214151   0.204   1.112   1.775
 1273SOL     OW14152   2.896   0.833   1.160
 1273SOL    HW114153   2.820   0.790   1.208
 1273SOL    HW214154   2.978   0.776   1.169
 1274SOL     OW14155   3.516   3.698   0.256
 1274SOL    HW114156   3.572   3.670   0.178
 1274SOL    HW214157   3.499   3.619   0.315
 1275SOL     OW14158   7.378   2.654   0.565
 1275SOL    HW114159   7.317   2.716   0.515
 1275SOL    HW214160   7.428   2.596   0.501
 1276SOL     OW14161   7.024   9.190   1.705
 1276SOL    HW114162   6.998   9.097   1.731
 1276SOL    HW214163   6.985   9.255   1.770
 1277SOL     OW14164   9.395   1.536   0.047
 1277SOL    HW114165   9.313   1.521   4.032
 1277SOL    HW214166   9.416   1.634   0.049
 1278SOL     OW14167   8.226   8.633   1.268
 1278SOL    HW114168   8.212   8.580   1.184
 1278SOL    HW214169   8.321   8.662   1.273
 1279SOL     OW14170   3.366   3.322   1.702
 1279SOL    HW114171   3.402   3.229   1.698
 1279SOL    HW214172   3.382   3.368   1.614
 1280SOL     OW14173   0.771   6.522   0.854
 1280SOL    HW114174   0.793   6.543   0.949
 1280SOL    HW214175   0.856   6.523   0.800
 1281SOL     OW14176   2.870   5.292   0.638
 1281SOL    HW114177   2.915   5.259   0.721
 1281SOL    HW214178   2.774   5.264   0.639
 1282SOL     OW14179   0.054   7.355   2.993
 1282SOL    HW114180   0.139   7.372   3.043
 1282SOL    HW214181   0.074   7.338   2.897
 1283SOL     OW14182   3.271   3.305   2.407
 1283SOL    HW114183   3.215   3.232   2.445
 1283SOL    HW214184   3.277   3.295   2.308
 1284SOL     OW14185   1.861   3.783   1.234
 1284SOL    HW114186   1.878   3.714   1.304
 1284SOL    HW214187   1.821   3.865   1.277
 1285SOL     OW14188   9.532   7.362   2.947
 1285SOL    HW114189   9.614   7.356   3.003
 1285SOL    HW214190   9.557   7.364   2.850
 1286SOL     OW14191   2.878   8.600   2.306
 1286SOL    HW114192   2.804   8.649   2.352
 1286SOL    HW214193   2.941   8.562   2.374
 1287SOL     OW14194   3.471   9.158   0.624
 1287SOL    HW114195   3.489   9.231   0.558
 1287SOL    HW214196   3.475   9.196   0.717
 1288SOL     OW14197   0.185   4.040   0.541
 1288SOL    HW114198   0.238   3.987   0.608
 1288SOL    HW214199   0.095   4.059   0.578
 1289SOL     OW14200   4.887   8.284   2.671
 1289SOL    HW114201   4.973   8.269   2.622
 1289SOL    HW214202   4.897   8.256   2.766
 1290SOL     OW14203   4.382   5.476   2.367
 1290SOL    HW114204   4.322   5.539   2.316
 1290SOL    HW214205   4.339   5.453   2.455
 1291SOL     OW14206   2.447   7.601   2.743
 1291SOL    HW114207   2.485   7.532   2.805
 1291SOL    HW214208   2.438   7.562   2.652
 1292SOL     OW14209   1.840   9.409   2.806
 1292SOL    HW114210   1.894   9.490   2.785
 1292SOL    HW214211   1.892   9.348   2.866
 1293SOL     OW14212   2.754   3.158   0.868
 1293SOL    HW114213   2.770   3.234   0.805
 1293SOL    HW214214   2.657   3.134   0.868
 1294SOL     OW14215   0.306   6.577   0.734
 1294SOL    HW114216   0.232   6.643   0.750
 1294SOL    HW214217   0.394   6.625   0.738
 1295SOL     OW14218   9.142   9.095   1.002
 1295SOL    HW114219   9.138   9.154   0.922
 1295SOL    HW214220   9.221   9.119   1.059
 1296SOL     OW14221   0.651   5.542   2.552
 1296SOL    HW114222   0.647   5.527   2.651
 1296SOL    HW214223   0.582   5.610   2.526
 1297SOL     OW14224   3.640   8.532   0.230
 1297SOL    HW114225   3.578   8.541   0.308
 1297SOL    HW214226   3.705   8.608   0.231
 1298SOL     OW14227   8.466   0.517   1.493
 1298SOL    HW114228   8.535   0.573   1.540
 1298SOL    HW214229   8.405   0.576   1.441
 1299SOL     OW14230   8.988   3.632   0.092
 1299SOL    HW114231   9.035   3.545   0.106
 1299SOL    HW214232   8.892   3.623   0.121
 1300SOL     OW14233   3.826   4.259   1.758
 1300SOL    HW114234   3.743   4.307   1.785
 1300SOL    HW214235   3.859   4.297   1.671
 1301SOL     OW14236   9.949   7.108   2.634
 1301SOL    HW114237   9.851   7.090   2.646
 1301SOL    HW214238   9.984   7.050   2.561
 1302SOL     OW14239   5.932   9.198   2.099
 1302SOL    HW114240   5.963   9.106   2.074
 1302SOL    HW214241   5.998   9.240   2.162
 1303SOL     OW14242   1.368   3.832   0.710
 1303SOL    HW114243   1.278   3.875   0.721
 1303SOL    HW214244   1.436   3.885   0.759
 1304SOL     OW14245   6.163   8.538   2.120
 1304SOL    HW114246   6.231   8.589   2.173
 1304SOL    HW214247   6.119   8.600   2.055
 1305SOL     OW14248   8.723   2.832   2.860
 1305SOL    HW114249   8.765   2.752   2.904
 1305SOL    HW214250   8.759   2.841   2.768
 1306SOL     OW14251   8.540   7.011   2.803
 1306SOL    HW114252   8.506   6.921   2.833
 1306SOL    HW214253   8.462   7.070   2.783
 1307SOL     OW14254   8.124   0.137   0.387
 1307SOL    HW114255   8.032   0.133   0.426
 1307SOL    HW214256   8.123   0.189   0.302
 1308SOL     OW14257   9.213   3.682   0.769
 1308SOL    HW114258   9.299   3.660   0.815
 1308SOL    HW214259   9.230   3.738   0.689
 1309SOL     OW14260   9.425   3.563   1.315
 1309SOL    HW114261   9.400   3.532   1.407
 1309SOL    HW214262   9.481   3.645   1.322
 1310SOL     OW14263   2.441   2.757   0.221
 1310SOL    HW114264   2.517   2.752   0.156
 1310SOL    HW214265   2.403   2.850   0.221
 1311SOL     OW14266   0.459   7.359   2.699
 1311SOL    HW114267   0.417   7.272   2.722
 1311SOL    HW214268   0.389   7.422   2.665
 1312SOL     OW14269   2.964   4.436   2.056
 1312SOL    HW114270   2.966   4.337   2.066
 1312SOL    HW214271   3.041   4.465   2.000
 1313SOL     OW14272   8.723   6.964   2.574
 1313SOL    HW114273   8.704   7.002   2.665
 1313SOL    HW214274   8.637   6.947   2.526
 1314SOL     OW14275   8.358   9.718   3.028
 1314SOL    HW114276   8.302   9.798   3.007
 1314SOL    HW214277   8.449   9.728   2.987
 1315SOL     OW14278   2.286   3.598   2.236
 1315SOL    HW114279   2.340   3.661   2.179
 1315SOL    HW214280   2.216   3.555   2.181
 1316SOL     OW14281   5.110   1.281   2.042
 1316SOL    HW114282   5.032   1.315   2.095
 1316SOL    HW214283   5.195   1.302   2.091
 1317SOL     OW14284   7.319   9.896   1.788
 1317SOL    HW114285   7.349   9.990   1.800
 1317SOL    HW214286   7.237   9.879   1.843
 1318SOL     OW14287   1.665   2.857   3.060
 1318SOL    HW114288   1.642   2.949   3.027
 1318SOL    HW214289   1.589   2.820   3.112
 1319SOL     OW14290   8.678   1.003   0.556
 1319SOL    HW114291   8.756   1.065   0.561
 1319SOL    HW214292   8.707   0.917   0.513
 1320SOL     OW14293   4.440   5.237   2.613
 1320SOL    HW114294   4.364   5.303   2.619
 1320SOL    HW214295   4.447   5.188   2.700
 1321SOL     OW14296   1.137   6.123   0.423
 1321SOL    HW114297   1.139   6.195   0.493
 1321SOL    HW214298   1.086   6.045   0.459
 1322SOL     OW14299   3.900   9.325   1.728
 1322SOL    HW114300   3.834   9.386   1.771
 1322SOL    HW214301   3.852   9.254   1.677
 1323SOL     OW14302   7.773   9.795   3.067
 1323SOL    HW114303   7.828   9.722   3.026
 1323SOL    HW214304   7.830   9.876   3.082
 1324SOL     OW14305   2.507   5.152   1.990
 1324SOL    HW114306   2.541   5.185   2.079
 1324SOL    HW214307   2.420   5.106   2.003
 1325SOL     OW14308   2.829   8.553   0.948
 1325SOL    HW114309   2.892   8.616   0.994
 1325SOL    HW214310   2.841   8.561   0.849
 1326SOL     OW14311   4.142   4.219   1.891
 1326SOL    HW114312   4.107   4.146   1.832
 1326SOL    HW214313   4.071   4.247   1.955
 1327SOL     OW14314   2.096   7.712   0.678
 1327SOL    HW114315   2.136   7.768   0.605
 1327SOL    HW214316   2.050   7.633   0.638
 1328SOL     OW14317   9.984   7.001   1.337
 1328SOL    HW114318   0.035   7.078   1.300
 1328SOL    HW214319   0.047   6.935   1.378
 1329SOL     OW14320   7.287   9.383   0.960
 1329SOL    HW114321   7.198   9.341   0.981
 1329SOL    HW214322   7.353   9.312   0.936
 1330SOL     OW14323   4.270   1.780   1.757
 1330SOL    HW114324   4.241   1.696   1.803
 1330SOL    HW214325   4.369   1.779   1.744
 1331SOL     OW14326   8.409   8.439   1.947
 1331SOL    HW114327   8.454   8.366   1.998
 1331SOL    HW214328   8.375   8.508   2.011
 1332SOL     OW14329   8.624   4.017   0.484
 1332SOL    HW114330   8.638   3.973   0.573
 1332SOL    HW214331   8.530   3.999   0.453
 1333SOL     OW14332   1.830   0.029   2.562
 1333SOL    HW114333   1.791   9.937   2.567
 1333SOL    HW214334   1.838   0.056   2.466
 1334SOL     OW14335   9.103   5.990   1.056
 1334SOL    HW114336   9.067   5.900   1.031
 1334SOL    HW214337   9.180   6.013   0.996
 1335SOL     OW14338   4.944   9.021   2.364
 1335SOL    HW114339   4.850   9.027   2.398
 1335SOL    HW214340   5.008   9.023   2.440
 1336SOL     OW14341   3.014   0.569   2.662
 1336SOL    HW114342   3.102   0.526   2.683
 1336SOL    HW214343   2.943   0.500   2.661
 1337SOL     OW14344   0.143   8.328   0.474
 1337SOL    HW114345   0.124   8.407   0.532
 1337SOL    HW214346   0.068   8.315   0.409
 1338SOL     OW14347   0.947   0.831   2.490
 1338SOL    HW114348   1.044   0.826   2.468
 1338SOL    HW214349   0.901   0.748   2.457
 1339SOL     OW14350   4.476   7.825   2.434
 1339SOL    HW114351   4.547   7.781   2.378
 1339SOL    HW214352   4.459   7.917   2.400
 1340SOL     OW14353   1.162   7.525   2.775
 1340SOL    HW114354   1.117   7.613   2.763
 1340SOL    HW214355   1.250   7.526   2.727
 1341SOL     OW14356   0.030   3.124   0.588
 1341SOL    HW114357   9.951   3.177   0.620
 1341SOL    HW214358   0.077   3.083   0.666
 1342SOL     OW14359   2.938   7.789   0.114
 1342SOL    HW114360   2.941   7.689   0.118
 1342SOL    HW214361   2.894   7.825   0.196
 1343SOL     OW14362   3.994   4.093   1.116
 1343SOL    HW114363   3.897   4.091   1.092
 1343SOL    HW214364   4.036   4.175   1.077
 1344SOL     OW14365   0.812   4.681   0.795
 1344SOL    HW114366   0.844   4.683   0.890
 1344SOL    HW214367   0.759   4.764   0.776
 1345SOL     OW14368   1.915   0.331   2.021
 1345SOL    HW114369   1.826   0.288   2.004
 1345SOL    HW214370   1.919   0.420   1.974
 1346SOL     OW14371   5.125   1.005   1.967
 1346SOL    HW114372   5.221   0.983   1.986
 1346SOL    HW214373   5.109   1.102   1.984
 1347SOL     OW14374   9.468   9.593   2.804
 1347SOL    HW114375   9.415   9.576   2.887
 1347SOL    HW214376   9.555   9.543   2.810
 1348SOL     OW14377   2.197   5.475   2.205
 1348SOL    HW114378   2.169   5.386   2.169
 1348SOL    HW214379   2.279   5.464   2.260
 1349SOL     OW14380   4.315   0.474   2.995
 1349SOL    HW114381   4.412   0.451   3.002
 1349SOL    HW214382   4.302   0.571   3.013
 1350SOL     OW14383   9.416   0.569   0.804
 1350SOL    HW114384   9.418   0.669   0.804
 1350SOL    HW214385   9.323   0.538   0.784
 1351SOL     OW14386   0.849   2.000   2.948
 1351SOL    HW114387   0.782   2.001   3.022
 1351SOL    HW214388   0.934   2.043   2.980
 1352SOL     OW14389   3.723   8.508   2.140
 1352SOL    HW114390   3.732   8.448   2.061
 1352SOL    HW214391   3.762   8.598   2.118
 1353SOL     OW14392   3.850   4.824   1.265
 1353SOL    HW114393   3.925   4.783   1.318
 1353SOL    HW214394   3.848   4.923   1.282
 1354SOL     OW14395   4.434   9.577   2.560
 1354SOL    HW114396   4.518   9.575   2.616
 1354SOL    HW214397   4.441   9.510   2.487
 1355SOL     OW14398   4.039   2.690   2.372
 1355SOL    HW114399   3.999   2.781   2.379
 1355SOL    HW214400   4.112   2.691   2.304
 1356SOL     OW14401   2.117   6.116   2.195
 1356SOL    HW114402   2.216   6.118   2.184
 1356SOL    HW214403   2.080   6.207   2.174
 1357SOL     OW14404   0.310   7.681   1.114
 1357SOL    HW114405   0.229   7.664   1.058
 1357SOL    HW214406   0.306   7.774   1.151
 1358SOL     OW14407   4.706   1.929   2.442
 1358SOL    HW114408   4.648   1.997   2.398
 1358SOL    HW214409   4.797   1.968   2.459
 1359SOL     OW14410   8.787   3.102   2.891
 1359SOL    HW114411   8.880   3.109   2.928
 1359SOL    HW214412   8.760   3.005   2.889
 1360SOL     OW14413   4.262   3.104   2.589
 1360SOL    HW114414   4.340   3.043   2.603
 1360SOL    HW214415   4.231   3.098   2.494
 1361SOL     OW14416   2.123   5.291   1.362
 1361SOL    HW114417   2.033   5.332   1.351
 1361SOL    HW214418   2.163   5.273   1.271
 1362SOL     OW14419   0.665   2.168   2.117
 1362SOL    HW114420   0.726   2.246   2.108
 1362SOL    HW214421   0.719   2.085   2.131
 1363SOL     OW14422   1.018   8.278   3.103
 1363SOL    HW114423   1.052   8.361   3.060
 1363SOL    HW214424   0.989   8.298   3.197
 1364SOL     OW14425   7.001   8.582   2.566
 1364SOL    HW114426   7.010   8.498   2.513
 1364SOL    HW214427   7.005   8.561   2.664
 1365SOL     OW14428   8.170   9.022   2.625
 1365SOL    HW114429   8.261   9.064   2.625
 1365SOL    HW214430   8.162   8.961   2.705
 1366SOL     OW14431   0.018   9.121   2.348
 1366SOL    HW114432   9.940   9.162   2.301
 1366SOL    HW214433   0.084   9.192   2.371
 1367SOL     OW14434   0.410   6.743   2.727
 1367SOL    HW114435   0.492   6.687   2.719
 1367SOL    HW214436   0.329   6.687   2.707
 1368SOL     OW14437   9.954   0.822   1.474
 1368SOL    HW114438   9.930   0.910   1.516
 1368SOL    HW214439   9.915   0.818   1.382
 1369SOL     OW14440   8.911   5.823   1.992
 1369SOL    HW114441   8.953   5.811   2.082
 1369SOL    HW214442   8.982   5.845   1.925
 1370SOL     OW14443   0.801   7.212   0.096
 1370SOL    HW114444   0.705   7.221   0.071
 1370SOL    HW214445   0.844   7.302   0.094
 1371SOL     OW14446   9.229   8.359   1.685
 1371SOL    HW114447   9.301   8.312   1.736
 1371SOL    HW214448   9.187   8.429   1.744
 1372SOL     OW14449   9.689   6.864   0.551
 1372SOL    HW114450   9.709   6.872   0.453
 1372SOL    HW214451   9.593   6.839   0.563
 1373SOL     OW14452   3.586   4.078   1.468
 1373SOL    HW114453   3.591   4.006   1.537
 1373SOL    HW214454   3.588   4.167   1.513
 1374SOL     OW14455   3.708   2.219   0.899
 1374SOL    HW114456   3.729   2.316   0.911
 1374SOL    HW214457   3.762   2.165   0.964
 1375SOL     OW14458   3.017   1.061   3.141
 1375SOL    HW114459   3.116   1.073   3.148
 1375SOL    HW214460   2.996   0.964   3.133
 1376SOL     OW14461   0.178   2.263   0.216
 1376SOL    HW114462   0.132   2.185   0.172
 1376SOL    HW214463   0.267   2.234   0.252
 1377SOL     OW14464   0.616   6.287   1.497
 1377SOL    HW114465   0.577   6.378   1.508
 1377SOL    HW214466   0.616   6.262   1.400
 1378SOL     OW14467   9.499   5.124   1.109
 1378SOL    HW114468   9.581   5.117   1.052
 1378SOL    HW214469   9.418   5.104   1.053
 1379SOL     OW14470   9.433   2.390   3.061
 1379SOL    HW114471   9.514   2.350   3.018
 1379SOL    HW214472   9.407   2.334   3.140
 1380SOL     OW14473   8.375   1.312   0.117
 1380SOL    HW114474   8.360   1.407   0.090
 1380SOL    HW214475   8.291   1.275   0.158
 1381SOL     OW14476   9.426   3.003   2.745
 1381SOL    HW114477   9.404   2.948   2.665
 1381SOL    HW214478   9.419   3.100   2.723
 1382SOL     OW14479   9.212   9.665   2.442
 1382SOL    HW114480   9.215   9.577   2.490
 1382SOL    HW214481   9.124   9.674   2.396
 1383SOL     OW14482   9.592   9.064   0.741
 1383SOL    HW114483   9.672   9.078   0.682
 1383SOL    HW214484   9.510   9.093   0.693
 1384SOL     OW14485   2.526   2.099   0.401
 1384SOL    HW114486   2.446   2.110   0.343
 1384SOL    HW214487   2.521   2.012   0.449
 1385SOL     OW14488   7.883   9.606   1.879
 1385SOL    HW114489   7.845   9.698   1.881
 1385SOL    HW214490   7.957   9.599   1.945
 1386SOL     OW14491   1.818   8.709   2.686
 1386SOL    HW114492   1.897   8.685   2.741
 1386SOL    HW214493   1.826   8.803   2.654
 1387SOL     OW14494   2.839   8.609   2.035
 1387SOL    HW114495   2.866   8.598   2.131
 1387SOL    HW214496   2.918   8.639   1.982
 1388SOL     OW14497   3.968   3.864   1.527
 1388SOL    HW114498   3.950   3.945   1.471
 1388SOL    HW214499   4.052   3.820   1.496
 1389SOL     OW14500   9.365   4.309   1.170
 1389SOL    HW114501   9.420   4.294   1.252
 1389SOL    HW214502   9.276   4.346   1.196
 1390SOL     OW14503   2.345   5.722   1.869
 1390SOL    HW114504   2.304   5.648   1.816
 1390SOL    HW214505   2.367   5.798   1.808
 1391SOL     OW14506   9.234   9.952   2.126
 1391SOL    HW114507   9.259   9.858   2.149
 1391SOL    HW214508   9.317   0.007   2.112
 1392SOL     OW14509   0.896   7.401   0.853
 1392SOL    HW114510   0.829   7.376   0.922
 1392SOL    HW214511   0.879   7.494   0.821
 1393SOL     OW14512   1.453   4.592   0.770
 1393SOL    HW114513   1.380   4.582   0.702
 1393SOL    HW214514   1.457   4.687   0.801
 1394SOL     OW14515   1.657   1.573   0.595
 1394SOL    HW114516   1.718   1.651   0.584
 1394SOL    HW214517   1.562   1.602   0.582
 1395SOL     OW14518   6.290   8.368   2.932
 1395SOL    HW114519   6.274   8.460   2.965
 1395SOL    HW214520   6.383   8.360   2.896
 1396SOL     OW14521   5.352   8.985   2.761
 1396SOL    HW114522   5.447   9.009   2.782
 1396SOL    HW214523   5.343   8.970   2.663
 1397SOL     OW14524   2.448   6.230   1.640
 1397SOL    HW114525   2.444   6.198   1.735
 1397SOL    HW214526   2.371   6.190   1.588
 1398SOL     OW14527   0.387   0.164   2.744
 1398SOL    HW114528   0.366   0.130   2.652
 1398SOL    HW214529   0.429   0.091   2.798
 1399SOL     OW14530   0.951   6.480   2.391
 1399SOL    HW114531   0.926   6.387   2.364
 1399SOL    HW214532   1.046   6.498   2.363
 1400SOL     OW14533   2.852   4.815   1.874
 1400SOL    HW114534   2.815   4.745   1.936
 1400SOL    HW214535   2.780   4.880   1.852
 1401SOL     OW14536   6.272   8.093   3.002
 1401SOL    HW114537   6.282   8.193   2.998
 1401SOL    HW214538   6.184   8.070   3.044
 1402SOL     OW14539   3.261   2.688   1.081
 1402SOL    HW114540   3.197   2.655   1.011
 1402SOL    HW214541   3.212   2.743   1.148
 1403SOL     OW14542   0.461   8.959   2.323
 1403SOL    HW114543   0.365   8.932   2.326
 1403SOL    HW214544   0.481   8.999   2.234
 1404SOL     OW14545   1.660   4.012   2.509
 1404SOL    HW114546   1.647   3.916   2.486
 1404SOL    HW214547   1.756   4.037   2.497
 1405SOL     OW14548   3.762   0.772   1.358
 1405SOL    HW114549   3.820   0.711   1.305
 1405SOL    HW214550   3.795   0.866   1.349
 1406SOL     OW14551   4.936   7.398   0.398
 1406SOL    HW114552   4.876   7.399   0.318
 1406SOL    HW214553   4.899   7.336   0.467
 1407SOL     OW14554   1.364   6.287   2.900
 1407SOL    HW114555   1.449   6.237   2.916
 1407SOL    HW214556   1.377   6.353   2.826
 1408SOL     OW14557   2.589   4.451   0.113
 1408SOL    HW114558   2.539   4.530   0.149
 1408SOL    HW214559   2.525   4.388   0.069
 1409SOL     OW14560   3.475   8.971   2.632
 1409SOL    HW114561   3.497   8.968   2.729
 1409SOL    HW214562   3.558   8.953   2.578
 1410SOL     OW14563   9.940   5.643   2.651
 1410SOL    HW114564   9.930   5.711   2.578
 1410SOL    HW214565   9.884   5.563   2.629
 1411SOL     OW14566   1.078   0.642   1.035
 1411SOL    HW114567   0.984   0.659   1.004
 1411SOL    HW214568   1.108   0.553   1.001
 1412SOL     OW14569   1.860   6.565   0.581
 1412SOL    HW114570   1.942   6.540   0.528
 1412SOL    HW214571   1.779   6.535   0.531
 1413SOL     OW14572   1.073   3.268   1.208
 1413SOL    HW114573   1.055   3.349   1.264
 1413SOL    HW214574   0.987   3.232   1.173
 1414SOL     OW14575   1.225   3.027   0.221
 1414SOL    HW114576   1.175   3.108   0.190
 1414SOL    HW214577   1.214   3.017   0.320
 1415SOL     OW14578   9.697   9.443   2.808
 1415SOL    HW114579   9.754   9.501   2.749
 1415SOL    HW214580   9.756   9.383   2.863
 1416SOL     OW14581   0.090   8.742   3.105
 1416SOL    HW114582   0.104   8.739   3.204
 1416SOL    HW214583   0.105   8.651   3.066
 1417SOL     OW14584   8.369   7.929   2.040
 1417SOL    HW114585   8.322   7.845   2.016
 1417SOL    HW214586   8.324   8.007   1.995
 1418SOL     OW14587   4.457   7.481   1.595
 1418SOL    HW114588   4.534   7.449   1.541
 1418SOL    HW214589   4.448   7.580   1.584
 1419SOL     OW14590   2.453   3.835   1.133
 1419SOL    HW114591   2.367   3.785   1.117
 1419SOL    HW214592   2.499   3.796   1.212
 1420SOL     OW14593   1.345   2.832   2.144
 1420SOL    HW114594   1.311   2.924   2.126
 1420SOL    HW214595   1.316   2.802   2.235
 1421SOL     OW14596   5.011   8.610   1.935
 1421SOL    HW114597   5.029   8.624   2.032
 1421SOL    HW214598   4.983   8.515   1.920
 1422SOL     OW14599   2.215   9.736   1.896
 1422SOL    HW114600   2.269   9.819   1.909
 1422SOL    HW214601   2.276   9.660   1.872
 1423SOL     OW14602   6.995   8.161   1.911
 1423SOL    HW114603   7.071   8.219   1.939
 1423SOL    HW214604   7.010   8.128   1.818
 1424SOL     OW14605   9.355   6.298   1.280
 1424SOL    HW114606   9.430   6.359   1.306
 1424SOL    HW214607   9.388   6.232   1.211
 1425SOL     OW14608   3.977   4.561   2.345
 1425SOL    HW114609   4.053   4.500   2.324
 1425SOL    HW214610   3.938   4.595   2.259
 1426SOL     OW14611   2.550   4.921   2.643
 1426SOL    HW114612   2.514   4.906   2.735
 1426SOL    HW214613   2.605   4.842   2.615
 1427SOL     OW14614   8.206   0.896   1.491
 1427SOL    HW114615   8.176   0.889   1.586
 1427SOL    HW214616   8.237   0.807   1.458
 1428SOL     OW14617   3.820   5.568   1.566
 1428SOL    HW114618   3.917   5.548   1.578
 1428SOL    HW214619   3.772   5.548   1.652
 1429SOL     OW14620   5.345   8.654   2.963
 1429SOL    HW114621   5.371   8.656   2.866
 1429SOL    HW214622   5.426   8.638   3.019
 1430SOL     OW14623   0.998   3.489   1.384
 1430SOL    HW114624   1.079   3.545   1.399
 1430SOL    HW214625   0.929   3.512   1.452
 1431SOL     OW14626   1.788   8.814   1.227
 1431SOL    HW114627   1.770   8.774   1.137
 1431SOL    HW214628   1.806   8.741   1.292
 1432SOL     OW14629   3.047   5.592   2.429
 1432SOL    HW114630   2.958   5.636   2.441
 1432SOL    HW214631   3.044   5.531   2.350
 1433SOL     OW14632   0.262   3.045   2.927
 1433SOL    HW114633   0.332   2.975   2.935
 1433SOL    HW214634   0.299   3.134   2.956
 1434SOL     OW14635   0.693   6.107   1.909
 1434SOL    HW114636   0.764   6.051   1.868
 1434SOL    HW214637   0.728   6.199   1.926
 1435SOL     OW14638   6.418   9.778   2.423
 1435SOL    HW114639   6.342   9.719   2.452
 1435SOL    HW214640   6.504   9.728   2.430
 1436SOL     OW14641   2.528   4.375   1.769
 1436SOL    HW114642   2.563   4.427   1.691
 1436SOL    HW214643   2.441   4.332   1.744
 1437SOL     OW14644   1.216   3.105   1.376
 1437SOL    HW114645   1.176   3.160   1.303
 1437SOL    HW214646   1.186   3.142   1.465
 1438SOL     OW14647   1.027   0.375   2.740
 1438SOL    HW114648   1.070   0.286   2.750
 1438SOL    HW214649   0.934   0.371   2.776
 1439SOL     OW14650   1.369   5.564   2.167
 1439SOL    HW114651   1.393   5.654   2.204
 1439SOL    HW214652   1.371   5.496   2.241
 1440SOL     OW14653   0.943   0.847   2.964
 1440SOL    HW114654   1.015   0.819   3.027
 1440SOL    HW214655   0.897   0.928   3.001
 1441SOL     OW14656   0.505   9.701   1.977
 1441SOL    HW114657   0.499   9.724   2.074
 1441SOL    HW214658   0.560   9.618   1.966
 1442SOL     OW14659   1.641   3.917   2.119
 1442SOL    HW114660   1.627   4.013   2.144
 1442SOL    HW214661   1.567   3.861   2.156
 1443SOL     OW14662   3.040   4.326   2.658
 1443SOL    HW114663   3.001   4.320   2.566
 1443SOL    HW214664   3.117   4.263   2.666
 1444SOL     OW14665   9.178   6.395   0.508
 1444SOL    HW114666   9.117   6.398   0.429
 1444SOL    HW214667   9.243   6.320   0.497
 1445SOL     OW14668   8.305   6.126   0.813
 1445SOL    HW114669   8.236   6.152   0.745
 1445SOL    HW214670   8.361   6.052   0.777
 1446SOL     OW14671   2.887   7.283   2.767
 1446SOL    HW114672   2.799   7.297   2.722
 1446SOL    HW214673   2.872   7.246   2.859
 1447SOL     OW14674   0.512   9.775   2.243
 1447SOL    HW114675   0.504   9.871   2.268
 1447SOL    HW214676   0.472   9.718   2.315
 1448SOL     OW14677   8.522   5.484   2.985
 1448SOL    HW114678   8.514   5.391   2.948
 1448SOL    HW214679   8.555   5.545   2.913
 1449SOL     OW14680   0.069   7.456   2.115
 1449SOL    HW114681   0.039   7.541   2.073
 1449SOL    HW214682   0.138   7.413   2.057
 1450SOL     OW14683   3.948   3.518   0.703
 1450SOL    HW114684   3.948   3.487   0.798
 1450SOL    HW214685   4.037   3.498   0.661
 1451SOL     OW14686   0.272   1.846   0.657
 1451SOL    HW114687   0.267   1.759   0.706
 1451SOL    HW214688   0.258   1.922   0.722
 1452SOL     OW14689   9.177   9.694   0.505
 1452SOL    HW114690   9.109   9.713   0.433
 1452SOL    HW214691   9.252   9.759   0.497
 1453SOL     OW14692   8.174   9.711   0.937
 1453SOL    HW114693   8.219   9.655   0.868
 1453SOL    HW214694   8.219   9.699   1.025
 1454SOL     OW14695   1.298   3.114   1.797
 1454SOL    HW114696   1.266   3.123   1.892
 1454SOL    HW214697   1.232   3.157   1.736
 1455SOL     OW14698   2.891   9.977   0.416
 1455SOL    HW114699   2.801   9.933   0.420
 1455SOL    HW214700   2.920   9.982   0.320
 1456SOL     OW14701   2.386   7.806   1.082
 1456SOL    HW114702   2.474   7.852   1.080
 1456SOL    HW214703   2.332   7.840   1.159
 1457SOL     OW14704   8.281   3.558   0.128
 1457SOL    HW114705   8.333   3.478   0.097
 1457SOL    HW214706   8.190   3.528   0.158
 1458SOL     OW14707   4.042   9.814   1.239
 1458SOL    HW114708   4.120   9.875   1.226
 1458SOL    HW214709   4.066   9.722   1.207
 1459SOL     OW14710   3.879   1.886   1.594
 1459SOL    HW114711   3.863   1.792   1.563
 1459SOL    HW214712   3.806   1.945   1.558
 1460SOL     OW14713   2.902   9.505   1.068
 1460SOL    HW114714   2.846   9.430   1.033
 1460SOL    HW214715   2.998   9.482   1.059
 1461SOL     OW14716   1.071   2.871   1.336
 1461SOL    HW114717   1.127   2.952   1.355
 1461SOL    HW214718   1.002   2.894   1.267
 1462SOL     OW14719   0.686   1.845   0.624
 1462SOL    HW114720   0.602   1.876   0.579
 1462SOL    HW214721   0.760   1.908   0.602
 1463SOL     OW14722   3.150   0.110   0.259
 1463SOL    HW114723   3.235   0.057   0.263
 1463SOL    HW214724   3.146   0.172   0.338
 1464SOL     OW14725   1.955   0.751   2.181
 1464SOL    HW114726   1.859   0.768   2.201
 1464SOL    HW214727   1.974   0.653   2.185
 1465SOL     OW14728   3.401   0.680   2.774
 1465SOL    HW114729   3.478   0.732   2.810
 1465SOL    HW214730   3.378   0.713   2.682
 1466SOL     OW14731   8.266   5.934   0.564
 1466SOL    HW114732   8.251   5.977   0.475
 1466SOL    HW214733   8.205   5.855   0.573
 1467SOL     OW14734   2.804   0.388   2.663
 1467SOL    HW114735   2.794   0.370   2.761
 1467SOL    HW214736   2.716   0.374   2.617
 1468SOL     OW14737   7.937   5.471   1.237
 1468SOL    HW114738   7.873   5.401   1.205
 1468SOL    HW214739   7.939   5.470   1.337
 1469SOL     OW14740   1.429   8.823   1.275
 1469SOL    HW114741   1.496   8.896   1.262
 1469SOL    HW214742   1.449   8.774   1.360
 1470SOL     OW14743   8.727   3.916   1.707
 1470SOL    HW114744   8.675   3.994   1.675
 1470SOL    HW214745   8.824   3.941   1.717
 1471SOL     OW14746   9.967   3.353   1.076
 1471SOL    HW114747   0.027   3.327   1.001
 1471SOL    HW214748   9.904   3.278   1.096
 1472SOL     OW14749   0.728   1.866   0.052
 1472SOL    HW114750   0.702   1.951   0.099
 1472SOL    HW214751   0.730   1.791   0.118
 1473SOL     OW14752   2.845   2.607   3.049
 1473SOL    HW114753   2.775   2.617   2.979
 1473SOL    HW214754   2.802   2.578   3.135
 1474SOL     OW14755   2.358   8.654   1.796
 1474SOL    HW114756   2.403   8.741   1.817
 1474SOL    HW214757   2.373   8.590   1.871
 1475SOL     OW14758   9.292   2.346   2.826
 1475SOL    HW114759   9.215   2.283   2.840
 1475SOL    HW214760   9.334   2.367   2.915
 1476SOL     OW14761   1.404   6.478   2.710
 1476SOL    HW114762   1.501   6.494   2.697
 1476SOL    HW214763   1.357   6.566   2.721
 1477SOL     OW14764   9.218   0.231   1.640
 1477SOL    HW114765   9.262   0.273   1.719
 1477SOL    HW214766   9.150   0.164   1.672
 1478SOL     OW14767   1.627   3.436   0.382
 1478SOL    HW114768   1.648   3.484   0.468
 1478SOL    HW214769   1.534   3.398   0.387
 1479SOL     OW14770   9.092   8.306   2.768
 1479SOL    HW114771   9.020   8.374   2.754
 1479SOL    HW214772   9.052   8.223   2.807
 1480SOL     OW14773   0.988   6.513   0.674
 1480SOL    HW114774   0.917   6.511   0.603
 1480SOL    HW214775   1.058   6.580   0.649
 1481SOL     OW14776   2.472   9.184   1.423
 1481SOL    HW114777   2.547   9.250   1.411
 1481SOL    HW214778   2.388   9.222   1.384
 1482SOL     OW14779   1.225   1.268   1.050
 1482SOL    HW114780   1.264   1.237   1.137
 1482SOL    HW214781   1.298   1.308   0.994
 1483SOL     OW14782   4.229   6.620   2.927
 1483SOL    HW114783   4.137   6.591   2.900
 1483SOL    HW214784   4.248   6.710   2.889
 1484SOL     OW14785   1.004   0.359   1.458
 1484SOL    HW114786   1.012   0.450   1.417
 1484SOL    HW214787   0.908   0.341   1.480
 1485SOL     OW14788   9.104   0.816   1.160
 1485SOL    HW114789   9.199   0.842   1.147
 1485SOL    HW214790   9.044   0.882   1.114
 1486SOL     OW14791   2.526   3.655   2.497
 1486SOL    HW114792   2.427   3.670   2.507
 1486SOL    HW214793   2.564   3.722   2.434
 1487SOL     OW14794   4.701   2.779   0.128
 1487SOL    HW114795   4.705   2.735   0.038
 1487SOL    HW214796   4.788   2.824   0.147
 1488SOL     OW14797   8.684   0.997   2.105
 1488SOL    HW114798   8.715   0.951   2.022
 1488SOL    HW214799   8.699   0.937   2.184
 1489SOL     OW14800   3.906   8.407   2.490
 1489SOL    HW114801   3.911   8.327   2.430
 1489SOL    HW214802   3.912   8.376   2.585
 1490SOL     OW14803   1.953   4.369   2.400
 1490SOL    HW114804   2.048   4.354   2.425
 1490SOL    HW214805   1.913   4.437   2.461
 1491SOL     OW14806   9.079   1.298   2.859
 1491SOL    HW114807   9.052   1.202   2.856
 1491SOL    HW214808   9.144   1.312   2.934
 1492SOL     OW14809   2.957   4.431   1.720
 1492SOL    HW114810   3.035   4.452   1.779
 1492SOL    HW214811   2.916   4.516   1.689
 1493SOL     OW14812   1.090   6.211   2.549
 1493SOL    HW114813   1.052   6.250   2.633
 1493SOL    HW214814   1.023   6.150   2.507
 1494SOL     OW14815   3.593   4.177   2.822
 1494SOL    HW114816   3.688   4.177   2.852
 1494SOL    HW214817   3.561   4.271   2.811
 1495SOL     OW14818   2.232   0.348   1.847
 1495SOL    HW114819   2.312   0.350   1.787
 1495SOL    HW214820   2.171   0.274   1.819
 1496SOL     OW14821   2.362   4.384   1.190
 1496SOL    HW114822   2.288   4.432   1.142
 1496SOL    HW214823   2.360   4.287   1.166
 1497SOL     OW14824   8.191   0.628   1.698
 1497SOL    HW114825   8.283   0.635   1.736
 1497SOL    HW214826   8.184   0.544   1.644
 1498SOL     OW14827   6.524   7.854   2.730
 1498SOL    HW114828   6.509   7.761   2.764
 1498SOL    HW214829   6.438   7.905   2.732
 1499SOL     OW14830   0.388   3.064   1.881
 1499SOL    HW114831   0.294   3.050   1.850
 1499SOL    HW214832   0.419   3.155   1.856
 1500SOL     OW14833   4.046   7.296   1.001
 1500SOL    HW114834   3.954   7.328   0.978
 1500SOL    HW214835   4.108   7.374   1.009
 1501SOL     OW14836   2.782   1.237   2.811
 1501SOL    HW114837   2.803   1.323   2.763
 1501SOL    HW214838   2.802   1.248   2.908
 1502SOL     OW14839   1.939   1.419   2.498
 1502SOL    HW114840   1.894   1.484   2.437
 1502SOL    HW214841   1.954   1.462   2.587
 1503SOL     OW14842   2.616   7.207   0.780
 1503SOL    HW114843   2.606   7.112   0.812
 1503SOL    HW214844   2.528   7.254   0.789
 1504SOL     OW14845   2.190   1.927   1.317
 1504SOL    HW114846   2.097   1.961   1.333
 1504SOL    HW214847   2.196   1.833   1.351
 1505SOL     OW14848   2.607   7.083   2.492
 1505SOL    HW114849   2.553   7.147   2.438
 1505SOL    HW214850   2.691   7.061   2.442
 1506SOL     OW14851   9.466   7.965   0.687
 1506SOL    HW114852   9.501   7.879   0.651
 1506SOL    HW214853   9.371   7.976   0.660
 1507SOL     OW14854   3.045   5.395   2.236
 1507SOL    HW114855   2.975   5.352   2.179
 1507SOL    HW214856   3.121   5.425   2.178
 1508SOL     OW14857   0.172   7.458   1.702
 1508SOL    HW114858   0.248   7.453   1.638
 1508SOL    HW214859   0.132   7.550   1.700
 1509SOL     OW14860   8.849   9.267   1.888
 1509SOL    HW114861   8.825   9.186   1.942
 1509SOL    HW214862   8.901   9.330   1.944
 1510SOL     OW14863   2.128   5.543   3.120
 1510SOL    HW114864   2.156   5.522   3.214
 1510SOL    HW214865   2.172   5.480   3.057
 1511SOL     OW14866   2.318   3.253   0.742
 1511SOL    HW114867   2.259   3.284   0.667
 1511SOL    HW214868   2.289   3.162   0.772
 1512SOL     OW14869   7.842   8.565   3.039
 1512SOL    HW114870   7.940   8.580   3.049
 1512SOL    HW214871   7.826   8.485   2.981
 1513SOL     OW14872   7.858   0.419   2.818
 1513SOL    HW114873   7.831   0.516   2.819
 1513SOL    HW214874   7.890   0.395   2.727
 1514SOL     OW14875   8.660   2.791   2.405
 1514SOL    HW114876   8.628   2.700   2.433
 1514SOL    HW214877   8.582   2.844   2.372
 1515SOL     OW14878   8.400   2.198   3.002
 1515SOL    HW114879   8.426   2.295   2.993
 1515SOL    HW214880   8.482   2.143   3.014
 1516SOL     OW14881   0.497   8.952   0.520
 1516SOL    HW114882   0.486   8.902   0.434
 1516SOL    HW214883   0.557   8.901   0.581
 1517SOL     OW14884   0.401   7.141   1.442
 1517SOL    HW114885   0.483   7.155   1.498
 1517SOL    HW214886   0.322   7.179   1.489
 1518SOL     OW14887   0.100   6.642   0.146
 1518SOL    HW114888   0.059   6.712   0.088
 1518SOL    HW214889   0.032   6.574   0.170
 1519SOL     OW14890   0.046   4.883   2.516
 1519SOL    HW114891   9.988   4.923   2.588
 1519SOL    HW214892   0.040   4.784   2.521
 1520SOL     OW14893   4.260   9.685   1.821
 1520SOL    HW114894   4.212   9.597   1.830
 1520SOL    HW214895   4.292   9.715   1.911
 1521SOL     OW14896   1.511   5.695   1.045
 1521SOL    HW114897   1.529   5.683   1.143
 1521SOL    HW214898   1.574   5.764   1.008
 1522SOL     OW14899   4.375   9.353   1.795
 1522SOL    HW114900   4.380   9.359   1.695
 1522SOL    HW214901   4.285   9.383   1.826
 1523SOL     OW14902   2.992   2.287   0.160
 1523SOL    HW114903   2.951   2.308   0.249
 1523SOL    HW214904   2.987   2.189   0.144
 1524SOL     OW14905   4.153   8.821   2.600
 1524SOL    HW114906   4.125   8.869   2.517
 1524SOL    HW214907   4.169   8.724   2.579
 1525SOL     OW14908   8.718   6.920   3.227
 1525SOL    HW114909   8.694   6.822   3.229
 1525SOL    HW214910   8.643   6.971   3.185
 1526SOL     OW14911   4.021   8.451   0.472
 1526SOL    HW114912   4.013   8.484   0.378
 1526SOL    HW214913   4.072   8.518   0.527
 1527SOL     OW14914   0.027   6.409   1.443
 1527SOL    HW114915   0.066   6.429   1.353
 1527SOL    HW214916   0.041   6.312   1.465
 1528SOL     OW14917   7.656   9.380   1.163
 1528SOL    HW114918   7.598   9.298   1.170
 1528SOL    HW214919   7.607   9.451   1.112
 1529SOL     OW14920   1.500   2.574   2.647
 1529SOL    HW114921   1.543   2.498   2.599
 1529SOL    HW214922   1.568   2.646   2.661
 1530SOL     OW14923   4.883   9.204   1.862
 1530SOL    HW114924   4.946   9.279   1.846
 1530SOL    HW214925   4.896   9.168   1.954
 1531SOL     OW14926   2.306   9.309   0.291
 1531SOL    HW114927   2.240   9.383   0.306
 1531SOL    HW214928   2.260   9.221   0.298
 1532SOL     OW14929   2.950   5.237   2.443
 1532SOL    HW114930   2.964   5.147   2.402
 1532SOL    HW214931   2.975   5.309   2.377
 1533SOL     OW14932   6.752   7.586   2.883
 1533SOL    HW114933   6.659   7.600   2.852
 1533SOL    HW214934   6.766   7.489   2.904
 1534SOL     OW14935   8.861   2.385   2.495
 1534SOL    HW114936   8.920   2.450   2.447
 1534SOL    HW214937   8.849   2.303   2.438
 1535SOL     OW14938   3.711   5.465   1.795
 1535SOL    HW114939   3.787   5.461   1.860
 1535SOL    HW214940   3.687   5.372   1.767
 1536SOL     OW14941   2.437   0.054   1.265
 1536SOL    HW114942   2.454   0.131   1.327
 1536SOL    HW214943   2.348   0.014   1.286
 1537SOL     OW14944   0.364   1.608   1.976
 1537SOL    HW114945   0.452   1.575   1.944
 1537SOL    HW214946   0.328   1.547   2.046
 1538SOL     OW14947   7.042   9.253   0.989
 1538SOL    HW114948   7.040   9.224   0.893
 1538SOL    HW214949   6.955   9.294   1.014
 1539SOL     OW14950   9.079   8.240   2.197
 1539SOL    HW114951   9.017   8.172   2.159
 1539SOL    HW214952   9.072   8.238   2.297
 1540SOL     OW14953   2.229   2.529   0.819
 1540SOL    HW114954   2.249   2.541   0.917
 1540SOL    HW214955   2.140   2.486   0.809
 1541SOL     OW14956   8.859   7.234   2.283
 1541SOL    HW114957   8.775   7.224   2.230
 1541SOL    HW214958   8.890   7.144   2.314
 1542SOL     OW14959   1.819   7.698   0.416
 1542SOL    HW114960   1.897   7.732   0.364
 1542SOL    HW214961   1.847   7.619   0.471
 1543SOL     OW14962   5.136   7.094   2.776
 1543SOL    HW114963   5.107   7.003   2.746
 1543SOL    HW214964   5.161   7.149   2.697
 1544SOL     OW14965   2.927   7.583   1.684
 1544SOL    HW114966   3.009   7.612   1.734
 1544SOL    HW214967   2.883   7.509   1.733
 1545SOL     OW14968   8.328   9.290   2.250
 1545SOL    HW114969   8.386   9.220   2.292
 1545SOL    HW214970   8.252   9.311   2.312
 1546SOL     OW14971   3.559   0.350   1.386
 1546SOL    HW114972   3.581   0.288   1.311
 1546SOL    HW214973   3.627   0.342   1.458
 1547SOL     OW14974   2.955   1.357   0.744
 1547SOL    HW114975   2.877   1.294   0.743
 1547SOL    HW214976   2.996   1.357   0.835
 1548SOL     OW14977   1.275   1.325   0.712
 1548SOL    HW114978   1.184   1.363   0.727
 1548SOL    HW214979   1.337   1.358   0.784
 1549SOL     OW14980   9.133   1.323   1.160
 1549SOL    HW114981   9.209   1.269   1.123
 1549SOL    HW214982   9.087   1.269   1.231
 1550SOL     OW14983   2.717   7.545   1.292
 1550SOL    HW114984   2.652   7.523   1.364
 1550SOL    HW214985   2.809   7.520   1.322
 1551SOL     OW14986   6.287   9.435   2.025
 1551SOL    HW114987   6.311   9.529   1.999
 1551SOL    HW214988   6.308   9.374   1.948
 1552SOL     OW14989   4.159   1.220   0.211
 1552SOL    HW114990   4.251   1.183   0.197
 1552SOL    HW214991   4.091   1.152   0.186
 1553SOL     OW14992   5.751   7.226   2.899
 1553SOL    HW114993   5.732   7.184   2.987
 1553SOL    HW214994   5.821   7.296   2.909
 1554SOL     OW14995   9.378   5.891   1.800
 1554SOL    HW114996   9.468   5.870   1.839
 1554SOL    HW214997   9.386   5.970   1.739
 1555SOL     OW14998   2.115   4.714   2.496
 1555SOL    HW114999   2.071   4.735   2.409
 1555SOL    HW215000   2.211   4.691   2.480
 1556SOL     OW15001   3.163   7.828   2.741
 1556SOL    HW115002   3.226   7.758   2.705
 1556SOL    HW215003   3.215   7.896   2.792
 1557SOL     OW15004   0.034   4.344   3.037
 1557SOL    HW115005   9.940   4.377   3.047
 1557SOL    HW215006   0.039   4.282   2.958
 1558SOL     OW15007   9.892   0.730   0.705
 1558SOL    HW115008   9.867   0.817   0.747
 1558SOL    HW215009   9.810   0.675   0.688
 1559SOL     OW15010   1.325   5.646   0.659
 1559SOL    HW115011   1.361   5.604   0.575
 1559SOL    HW215012   1.345   5.744   0.659
 1560SOL     OW15013   3.935   1.427   2.906
 1560SOL    HW115014   3.949   1.357   2.976
 1560SOL    HW215015   3.996   1.504   2.923
 1561SOL     OW15016   2.549   6.616   0.728
 1561SOL    HW115017   2.485   6.570   0.789
 1561SOL    HW215018   2.631   6.643   0.778
 1562SOL     OW15019   4.971   8.283   2.334
 1562SOL    HW115020   4.894   8.221   2.344
 1562SOL    HW215021   5.022   8.288   2.419
 1563SOL     OW15022   4.260   5.628   2.783
 1563SOL    HW115023   4.359   5.634   2.769
 1563SOL    HW215024   4.220   5.719   2.771
 1564SOL     OW15025   1.859   6.241   1.845
 1564SOL    HW115026   1.814   6.262   1.932
 1564SOL    HW215027   1.951   6.207   1.862
 1565SOL     OW15028   3.231   3.415   1.927
 1565SOL    HW115029   3.287   3.496   1.946
 1565SOL    HW215030   3.259   3.375   1.840
 1566SOL     OW15031   4.375   1.046   0.113
 1566SOL    HW115032   4.337   0.958   0.082
 1566SOL    HW215033   4.422   1.090   0.037
 1567SOL     OW15034   8.170   8.590   0.671
 1567SOL    HW115035   8.209   8.640   0.748
 1567SOL    HW215036   8.198   8.633   0.585
 1568SOL     OW15037   2.787   7.173   3.005
 1568SOL    HW115038   2.690   7.166   2.984
 1568SOL    HW215039   2.821   7.084   3.036
 1569SOL     OW15040   8.916   8.946   0.993
 1569SOL    HW115041   9.002   8.996   1.007
 1569SOL    HW215042   8.874   8.925   1.081
 1570SOL     OW15043   9.324   0.031   1.484
 1570SOL    HW115044   9.287   9.949   1.529
 1570SOL    HW215045   9.291   0.112   1.532
 1571SOL     OW15046   2.283   0.159   2.290
 1571SOL    HW115047   2.348   0.089   2.264
 1571SOL    HW215048   2.282   0.232   2.221
 1572SOL     OW15049   2.452   5.789   1.055
 1572SOL    HW115050   2.456   5.715   0.988
 1572SOL    HW215051   2.357   5.805   1.082
 1573SOL     OW15052   0.733   0.050   1.344
 1573SOL    HW115053   0.826   0.013   1.334
 1573SOL    HW215054   0.737   0.138   1.392
 1574SOL     OW15055   4.688   8.660   2.156
 1574SOL    HW115056   4.743   8.577   2.154
 1574SOL    HW215057   4.678   8.691   2.251
 1575SOL     OW15058   5.666   7.577   3.175
 1575SOL    HW115059   5.572   7.588   3.208
 1575SOL    HW215060   5.668   7.588   3.076
 1576SOL     OW15061   7.463   8.452   1.874
 1576SOL    HW115062   7.479   8.475   1.778
 1576SOL    HW215063   7.428   8.532   1.922
 1577SOL     OW15064   0.848   3.113   2.927
 1577SOL    HW115065   0.754   3.132   2.896
 1577SOL    HW215066   0.912   3.162   2.868
 1578SOL     OW15067   5.767   9.491   2.603
 1578SOL    HW115068   5.806   9.513   2.514
 1578SOL    HW215069   5.840   9.484   2.671
 1579SOL     OW15070   9.018   4.307   1.129
 1579SOL    HW115071   9.031   4.208   1.127
 1579SOL    HW215072   9.053   4.348   1.045
 1580SOL     OW15073   3.094   2.450   1.269
 1580SOL    HW115074   3.002   2.480   1.244
 1580SOL    HW215075   3.161   2.502   1.217
 1581SOL     OW15076   0.247   3.254   0.478
 1581SOL    HW115077   0.170   3.201   0.513
 1581SOL    HW215078   0.283   3.313   0.550
 1582SOL     OW15079   1.369   0.924   3.130
 1582SOL    HW115080   1.452   0.943   3.078
 1582SOL    HW215081   1.381   0.955   3.224
 1583SOL     OW15082   3.723   7.844   0.655
 1583SOL    HW115083   3.751   7.751   0.681
 1583SOL    HW215084   3.627   7.858   0.679
 1584SOL     OW15085   9.164   1.581   1.247
 1584SOL    HW115086   9.153   1.489   1.208
 1584SOL    HW215087   9.083   1.636   1.225
 1585SOL     OW15088   8.479   7.327   3.003
 1585SOL    HW115089   8.570   7.310   2.963
 1585SOL    HW215090   8.469   7.424   3.023
 1586SOL     OW15091   4.745   8.079   0.977
 1586SOL    HW115092   4.804   8.000   0.996
 1586SOL    HW215093   4.688   8.059   0.897
 1587SOL     OW15094   6.546   8.443   1.985
 1587SOL    HW115095   6.531   8.400   2.075
 1587SOL    HW215096   6.635   8.416   1.950
 1588SOL     OW15097   7.032   9.293   2.539
 1588SOL    HW115098   7.097   9.346   2.485
 1588SOL    HW215099   7.000   9.348   2.616
 1589SOL     OW15100   9.310   0.640   1.547
 1589SOL    HW115101   9.366   0.679   1.474
 1589SOL    HW215102   9.359   0.644   1.634
 1590SOL     OW15103   2.564   2.535   1.191
 1590SOL    HW115104   2.560   2.515   1.289
 1590SOL    HW215105   2.471   2.538   1.153
 1591SOL     OW15106   8.292   0.673   1.353
 1591SOL    HW115107   8.212   0.623   1.320
 1591SOL    HW215108   8.334   0.724   1.278
 1592SOL     OW15109   2.817   0.182   1.083
 1592SOL    HW115110   2.821   0.240   1.001
 1592SOL    HW215111   2.896   0.121   1.085
 1593SOL     OW15112   1.272   7.303   1.351
 1593SOL    HW115113   1.179   7.266   1.344
 1593SOL    HW215114   1.271   7.400   1.325
 1594SOL     OW15115   4.514   1.164   1.398
 1594SOL    HW115116   4.578   1.132   1.327
 1594SOL    HW215117   4.421   1.133   1.375
 1595SOL     OW15118   1.766   5.339   0.655
 1595SOL    HW115119   1.823   5.269   0.697
 1595SOL    HW215120   1.704   5.296   0.589
 1596SOL     OW15121   8.813   8.753   0.824
 1596SOL    HW115122   8.714   8.764   0.817
 1596SOL    HW215123   8.850   8.821   0.888
 1597SOL     OW15124   9.280   9.396   1.966
 1597SOL    HW115125   9.326   9.484   1.952
 1597SOL    HW215126   9.327   9.346   2.039
 1598SOL     OW15127   9.286   7.494   2.982
 1598SOL    HW115128   9.376   7.450   2.976
 1598SOL    HW215129   9.259   7.526   2.891
 1599SOL     OW15130   3.617   0.127   1.721
 1599SOL    HW115131   3.657   0.143   1.812
 1599SOL    HW215132   3.652   0.195   1.657
 1600SOL     OW15133   0.830   7.776   1.564
 1600SOL    HW115134   0.861   7.684   1.541
 1600SOL    HW215135   0.799   7.822   1.482
 1601SOL     OW15136   9.708   5.234   2.692
 1601SOL    HW115137   9.725   5.322   2.649
 1601SOL    HW215138   9.609   5.217   2.694
 1602SOL     OW15139   5.609   8.935   3.120
 1602SOL    HW115140   5.519   8.962   3.156
 1602SOL    HW215141   5.599   8.852   3.064
 1603SOL     OW15142   9.318   1.217   2.575
 1603SOL    HW115143   9.342   1.267   2.658
 1603SOL    HW215144   9.402   1.189   2.527
 1604SOL     OW15145   8.954   2.440   1.791
 1604SOL    HW115146   8.891   2.483   1.855
 1604SOL    HW215147   9.028   2.503   1.769
 1605SOL     OW15148   2.746   6.085   1.845
 1605SOL    HW115149   2.741   6.026   1.925
 1605SOL    HW215150   2.730   6.031   1.762
 1606SOL     OW15151   3.357   1.847   1.342
 1606SOL    HW115152   3.261   1.872   1.331
 1606SOL    HW215153   3.413   1.900   1.277
 1607SOL     OW15154   8.218   4.766   2.818
 1607SOL    HW115155   8.264   4.686   2.777
 1607SOL    HW215156   8.195   4.831   2.746
 1608SOL     OW15157   6.642   8.187   2.958
 1608SOL    HW115158   6.678   8.109   2.907
 1608SOL    HW215159   6.605   8.254   2.894
 1609SOL     OW15160   2.763   4.858   1.025
 1609SOL    HW115161   2.810   4.942   1.054
 1609SOL    HW215162   2.759   4.794   1.101
 1610SOL     OW15163   3.020   8.175   0.235
 1610SOL    HW115164   3.077   8.249   0.198
 1610SOL    HW215165   2.926   8.186   0.201
 1611SOL     OW15166   3.731   7.533   1.151
 1611SOL    HW115167   3.763   7.620   1.113
 1611SOL    HW215168   3.681   7.549   1.236
 1612SOL     OW15169   2.131   3.979   3.080
 1612SOL    HW115170   2.192   4.041   3.030
 1612SOL    HW215171   2.123   4.011   3.175
 1613SOL     OW15172   3.743   4.976   2.826
 1613SOL    HW115173   3.794   4.972   2.740
 1613SOL    HW215174   3.739   5.070   2.859
 1614SOL     OW15175   9.400   9.262   2.262
 1614SOL    HW115176   9.400   9.252   2.361
 1614SOL    HW215177   9.488   9.234   2.225
 1615SOL     OW15178   9.647   7.744   0.295
 1615SOL    HW115179   9.571   7.698   0.250
 1615SOL    HW215180   9.732   7.697   0.273
 1616SOL     OW15181   4.741   8.130   2.301
 1616SOL    HW115182   4.733   8.103   2.205
 1616SOL    HW215183   4.676   8.203   2.321
 1617SOL     OW15184   4.884   8.922   2.935
 1617SOL    HW115185   4.846   8.916   2.843
 1617SOL    HW215186   4.983   8.907   2.932
 1618SOL     OW15187   2.608   1.089   1.620
 1618SOL    HW115188   2.531   1.151   1.607
 1618SOL    HW215189   2.580   1.012   1.677
 1619SOL     OW15190   1.249   2.604   1.043
 1619SOL    HW115191   1.263   2.636   1.137
 1619SOL    HW215192   1.338   2.585   1.001
 1620SOL     OW15193   1.929   8.579   2.239
 1620SOL    HW115194   2.028   8.568   2.243
 1620SOL    HW215195   1.906   8.658   2.182
 1621SOL     OW15196   8.273   6.341   2.023
 1621SOL    HW115197   8.348   6.342   1.958
 1621SOL    HW215198   8.233   6.249   2.027
 1622SOL     OW15199   4.652   1.895   1.334
 1622SOL    HW115200   4.609   1.813   1.296
 1622SOL    HW215201   4.751   1.881   1.339
 1623SOL     OW15202   4.371   8.463   1.785
 1623SOL    HW115203   4.410   8.514   1.862
 1623SOL    HW215204   4.326   8.527   1.722
 1624SOL     OW15205   2.741   8.232   2.457
 1624SOL    HW115206   2.828   8.187   2.440
 1624SOL    HW215207   2.737   8.262   2.553
 1625SOL     OW15208   3.968   0.902   2.510
 1625SOL    HW115209   3.946   0.984   2.564
 1625SOL    HW215210   3.983   0.825   2.572
 1626SOL     OW15211   9.345   3.748   1.599
 1626SOL    HW115212   9.429   3.696   1.617
 1626SOL    HW215213   9.313   3.789   1.685
 1627SOL     OW15214   3.896   5.343   3.051
 1627SOL    HW115215   3.824   5.302   2.996
 1627SOL    HW215216   3.966   5.382   2.990
 1628SOL     OW15217   2.534   7.305   2.341
 1628SOL    HW115218   2.612   7.363   2.362
 1628SOL    HW215219   2.527   7.293   2.242
 1629SOL     OW15220   1.529   7.824   1.251
 1629SOL    HW115221   1.429   7.827   1.252
 1629SOL    HW215222   1.564   7.826   1.344
 1630SOL     OW15223   2.369   7.332   0.797
 1630SOL    HW115224   2.311   7.255   0.823
 1630SOL    HW215225   2.327   7.418   0.828
 1631SOL     OW15226   4.257   7.498   3.058
 1631SOL    HW115227   4.346   7.462   3.083
 1631SOL    HW215228   4.213   7.538   3.139
 1632SOL     OW15229   2.625   6.895   2.691
 1632SOL    HW115230   2.601   6.964   2.622
 1632SOL    HW215231   2.719   6.910   2.722
 1633SOL     OW15232   1.555   5.355   0.172
 1633SOL    HW115233   1.640   5.319   0.133
 1633SOL    HW215234   1.553   5.454   0.163
 1634SOL     OW15235   8.795   2.362   1.576
 1634SOL    HW115236   8.813   2.265   1.562
 1634SOL    HW215237   8.855   2.398   1.648
 1635SOL     OW15238   7.904   8.100   2.559
 1635SOL    HW115239   7.967   8.061   2.625
 1635SOL    HW215240   7.949   8.175   2.510
 1636SOL     OW15241   9.259   8.836   2.794
 1636SOL    HW115242   9.162   8.815   2.794
 1636SOL    HW215243   9.302   8.796   2.875
 1637SOL     OW15244   7.734   8.985   3.010
 1637SOL    HW115245   7.701   8.897   3.044
 1637SOL    HW215246   7.678   9.015   2.933
 1638SOL     OW15247   8.705   8.087   1.931
 1638SOL    HW115248   8.683   7.999   1.890
 1638SOL    HW215249   8.683   8.160   1.867
 1639SOL     OW15250   0.281   6.033   1.346
 1639SOL    HW115251   0.318   5.947   1.310
 1639SOL    HW215252   0.249   6.090   1.270
 1640SOL     OW15253   3.309   1.339   1.083
 1640SOL    HW115254   3.321   1.272   1.156
 1640SOL    HW215255   3.337   1.430   1.116
 1641SOL     OW15256   2.288   3.316   1.943
 1641SOL    HW115257   2.230   3.381   1.992
 1641SOL    HW215258   2.300   3.347   1.848
 1642SOL     OW15259   3.112   2.821   2.080
 1642SOL    HW115260   3.148   2.778   1.998
 1642SOL    HW215261   3.071   2.910   2.057
 1643SOL     OW15262   9.667   6.775   2.099
 1643SOL    HW115263   9.616   6.699   2.138
 1643SOL    HW215264   9.720   6.821   2.171
 1644SOL     OW15265   2.696   7.071   0.285
 1644SOL    HW115266   2.792   7.099   0.280
 1644SOL    HW215267   2.683   6.987   0.232
 1645SOL     OW15268   9.722   3.923   1.912
 1645SOL    HW115269   9.678   3.907   2.001
 1645SOL    HW215270   9.658   3.969   1.851
 1646SOL     OW15271   5.080   0.872   1.723
 1646SOL    HW115272   5.066   0.774   1.740
 1646SOL    HW215273   5.086   0.921   1.810
 1647SOL     OW15274   9.809   9.349   2.266
 1647SOL    HW115275   9.746   9.283   2.226
 1647SOL    HW215276   9.842   9.412   2.196
 1648SOL     OW15277   8.751   5.167   2.941
 1648SOL    HW115278   8.793   5.239   2.996
 1648SOL    HW215279   8.653   5.182   2.935
 1649SOL     OW15280   3.506   1.809   1.580
 1649SOL    HW115281   3.539   1.715   1.588
 1649SOL    HW215282   3.446   1.817   1.500
 1650SOL     OW15283   1.476   0.742   1.692
 1650SOL    HW115284   1.432   0.766   1.605
 1650SOL    HW215285   1.407   0.735   1.764
 1651SOL     OW15286   1.578   1.434   1.998
 1651SOL    HW115287   1.571   1.441   1.899
 1651SOL    HW215288   1.672   1.454   2.026
 1652SOL     OW15289   2.328   3.304   1.405
 1652SOL    HW115290   2.268   3.366   1.355
 1652SOL    HW215291   2.395   3.265   1.342
 1653SOL     OW15292   1.798   2.103   2.295
 1653SOL    HW115293   1.884   2.124   2.341
 1653SOL    HW215294   1.724   2.098   2.362
 1654SOL     OW15295   7.625   2.255   0.409
 1654SOL    HW115296   7.635   2.235   0.311
 1654SOL    HW215297   7.688   2.198   0.462
 1655SOL     OW15298   1.647   7.196   2.716
 1655SOL    HW115299   1.716   7.269   2.707
 1655SOL    HW215300   1.614   7.194   2.810
 1656SOL     OW15301   0.904   9.689   0.388
 1656SOL    HW115302   0.867   9.717   0.477
 1656SOL    HW215303   0.955   9.604   0.398
 1657SOL     OW15304   4.015   3.762   0.287
 1657SOL    HW115305   4.096   3.813   0.258
 1657SOL    HW215306   3.933   3.804   0.248
 1658SOL     OW15307   9.088   1.142   1.571
 1658SOL    HW115308   9.049   1.149   1.479
 1658SOL    HW215309   9.117   1.048   1.588
 1659SOL     OW15310   9.624   8.212   1.087
 1659SOL    HW115311   9.599   8.126   1.132
 1659SOL    HW215312   9.697   8.196   1.021
 1660SOL     OW15313   4.288   3.031   0.377
 1660SOL    HW115314   4.202   2.991   0.410
 1660SOL    HW215315   4.267   3.106   0.313
 1661SOL     OW15316   4.168   1.571   1.905
 1661SOL    HW115317   4.076   1.534   1.917
 1661SOL    HW215318   4.235   1.499   1.919
 1662SOL     OW15319   1.733   6.317   3.232
 1662SOL    HW115320   1.676   6.297   3.311
 1662SOL    HW215321   1.756   6.233   3.184
 1663SOL     OW15322   9.269   8.519   0.861
 1663SOL    HW115323   9.287   8.519   0.762
 1663SOL    HW215324   9.307   8.436   0.902
 1664SOL     OW15325   9.116   6.423   0.959
 1664SOL    HW115326   9.081   6.392   0.871
 1664SOL    HW215327   9.089   6.357   1.030
 1665SOL     OW15328   9.340   5.120   1.543
 1665SOL    HW115329   9.338   5.065   1.459
 1665SOL    HW215330   9.249   5.157   1.561
 1666SOL     OW15331   4.227   0.498   2.734
 1666SOL    HW115332   4.260   0.422   2.679
 1666SOL    HW215333   4.258   0.486   2.829
 1667SOL     OW15334   8.823   0.720   3.186
 1667SOL    HW115335   8.743   0.766   3.148
 1667SOL    HW215336   8.811   0.708   3.285
 1668SOL     OW15337   8.028   6.737   1.925
 1668SOL    HW115338   8.039   6.762   1.828
 1668SOL    HW215339   8.020   6.638   1.933
 1669SOL     OW15340   9.059   5.731   2.886
 1669SOL    HW115341   9.112   5.767   2.809
 1669SOL    HW215342   9.105   5.651   2.925
 1670SOL     OW15343   8.431   6.500   1.240
 1670SOL    HW115344   8.489   6.441   1.184
 1670SOL    HW215345   8.351   6.527   1.188
 1671SOL     OW15346   1.678   5.184   2.184
 1671SOL    HW115347   1.589   5.151   2.217
 1671SOL    HW215348   1.752   5.137   2.233
 1672SOL     OW15349   6.903   9.185   2.322
 1672SOL    HW115350   6.946   9.228   2.401
 1672SOL    HW215351   6.849   9.253   2.272
 1673SOL     OW15352   1.762   2.447   2.528
 1673SOL    HW115353   1.786   2.456   2.431
 1673SOL    HW215354   1.826   2.384   2.572
 1674SOL     OW15355   3.255   2.054   0.740
 1674SOL    HW115356   3.291   1.987   0.676
 1674SOL    HW215357   3.326   2.120   0.763
 1675SOL     OW15358   9.390   8.883   3.070
 1675SOL    HW115359   9.367   8.786   3.077
 1675SOL    HW215360   9.309   8.938   3.089
 1676SOL     OW15361   1.138   4.723   0.247
 1676SOL    HW115362   1.118   4.792   0.177
 1676SOL    HW215363   1.217   4.752   0.300
 1677SOL     OW15364   9.566   6.778   2.714
 1677SOL    HW115365   9.620   6.814   2.789
 1677SOL    HW215366   9.468   6.787   2.736
 1678SOL     OW15367   1.225   1.374   2.401
 1678SOL    HW115368   1.126   1.384   2.414
 1678SOL    HW215369   1.260   1.300   2.459
 1679SOL     OW15370   6.481   8.997   1.969
 1679SOL    HW115371   6.472   9.014   1.871
 1679SOL    HW215372   6.503   8.901   1.985
 1680SOL     OW15373   2.839   2.816   1.603
 1680SOL    HW115374   2.829   2.784   1.697
 1680SOL    HW215375   2.929   2.790   1.568
 1681SOL     OW15376   3.294   3.863   0.247
 1681SOL    HW115377   3.383   3.818   0.242
 1681SOL    HW215378   3.227   3.800   0.287
 1682SOL     OW15379   1.401   0.588   1.067
 1682SOL    HW115380   1.478   0.525   1.058
 1682SOL    HW215381   1.321   0.550   1.021
 1683SOL     OW15382   1.715   4.690   1.212
 1683SOL    HW115383   1.665   4.732   1.288
 1683SOL    HW215384   1.747   4.762   1.150
 1684SOL     OW15385   8.030   2.902   0.877
 1684SOL    HW115386   7.955   2.836   0.872
 1684SOL    HW215387   8.082   2.899   0.791
 1685SOL     OW15388   8.548   5.604   0.166
 1685SOL    HW115389   8.635   5.607   0.215
 1685SOL    HW215390   8.495   5.526   0.199
 1686SOL     OW15391   8.001   9.056   2.412
 1686SOL    HW115392   8.038   9.025   2.325
 1686SOL    HW215393   8.068   9.039   2.485
 1687SOL     OW15394   2.123   8.341   0.080
 1687SOL    HW115395   2.182   8.261   0.094
 1687SOL    HW215396   2.028   8.315   0.098
 1688SOL     OW15397   0.916   5.752   0.202
 1688SOL    HW115398   0.846   5.776   0.269
 1688SOL    HW215399   0.969   5.833   0.179
 1689SOL     OW15400   8.128   6.518   0.672
 1689SOL    HW115401   8.126   6.497   0.574
 1689SOL    HW215402   8.110   6.615   0.686
 1690SOL     OW15403   0.750   2.561   2.511
 1690SOL    HW115404   0.705   2.630   2.567
 1690SOL    HW215405   0.819   2.512   2.565
 1691SOL     OW15406   5.075   0.529   2.612
 1691SOL    HW115407   5.134   0.517   2.692
 1691SOL    HW215408   5.114   0.599   2.552
 1692SOL     OW15409   9.802   2.047   0.123
 1692SOL    HW115410   9.888   2.067   0.076
 1692SOL    HW215411   9.779   2.123   0.184
 1693SOL     OW15412   9.179   0.049   0.515
 1693SOL    HW115413   9.143   0.035   0.607
 1693SOL    HW215414   9.254   9.986   0.498
 1694SOL     OW15415   2.558   1.441   0.761
 1694SOL    HW115416   2.637   1.495   0.734
 1694SOL    HW215417   2.474   1.492   0.742
 1695SOL     OW15418   2.412   2.600   1.927
 1695SOL    HW115419   2.420   2.657   1.846
 1695SOL    HW215420   2.362   2.516   1.904
 1696SOL     OW15421   1.008   2.254   1.401
 1696SOL    HW115422   1.093   2.294   1.367
 1696SOL    HW215423   0.980   2.302   1.484
 1697SOL     OW15424   0.049   8.830   1.786
 1697SOL    HW115425   0.030   8.901   1.854
 1697SOL    HW215426   9.987   8.842   1.708
 1698SOL     OW15427   2.434   1.387   2.033
 1698SOL    HW115428   2.420   1.291   2.055
 1698SOL    HW215429   2.363   1.442   2.077
 1699SOL     OW15430   9.895   9.193   1.230
 1699SOL    HW115431   9.991   9.221   1.222
 1699SOL    HW215432   9.878   9.114   1.171
 1700SOL     OW15433   3.541   2.284   1.853
 1700SOL    HW115434   3.621   2.226   1.837
 1700SOL    HW215435   3.520   2.286   1.951
 1701SOL     OW15436   2.073   8.409   2.673
 1701SOL    HW115437   2.003   8.434   2.606
 1701SOL    HW215438   2.032   8.357   2.747
 1702SOL     OW15439   9.714   8.652   1.543
 1702SOL    HW115440   9.678   8.559   1.549
 1702SOL    HW215441   9.643   8.717   1.569
 1703SOL     OW15442   9.236   8.056   0.982
 1703SOL    HW115443   9.279   8.145   0.995
 1703SOL    HW215444   9.303   7.991   0.947
 1704SOL     OW15445   9.078   8.343   0.486
 1704SOL    HW115446   9.010   8.291   0.435
 1704SOL    HW215447   9.165   8.294   0.487
 1705SOL     OW15448   8.533   7.140   1.168
 1705SOL    HW115449   8.481   7.203   1.226
 1705SOL    HW215450   8.602   7.093   1.224
 1706SOL     OW15451   4.322   9.205   1.295
 1706SOL    HW115452   4.370   9.120   1.272
 1706SOL    HW215453   4.339   9.274   1.225
 1707SOL     OW15454   0.396   2.385   2.745
 1707SOL    HW115455   0.300   2.357   2.749
 1707SOL    HW215456   0.450   2.324   2.803
 1708SOL     OW15457   9.344   4.395   0.300
 1708SOL    HW115458   9.256   4.349   0.290
 1708SOL    HW215459   9.360   4.455   0.222
 1709SOL     OW15460   0.257   5.960   2.369
 1709SOL    HW115461   0.164   5.949   2.332
 1709SOL    HW215462   0.319   5.897   2.323
 1710SOL     OW15463   9.578   4.060   1.556
 1710SOL    HW115464   9.539   4.045   1.647
 1710SOL    HW215465   9.678   4.068   1.564
 1711SOL     OW15466   1.064   7.835   1.039
 1711SOL    HW115467   1.039   7.756   1.094
 1711SOL    HW215468   1.090   7.805   0.947
 1712SOL     OW15469   9.109   4.049   0.719
 1712SOL    HW115470   9.068   4.084   0.634
 1712SOL    HW215471   9.187   4.106   0.743
 1713SOL     OW15472   0.951   3.862   1.117
 1713SOL    HW115473   1.031   3.862   1.176
 1713SOL    HW215474   0.975   3.825   1.027
 1714SOL     OW15475   4.078   7.640   2.355
 1714SOL    HW115476   4.103   7.699   2.278
 1714SOL    HW215477   4.151   7.574   2.371
 1715SOL     OW15478   4.363   3.550   1.408
 1715SOL    HW115479   4.346   3.470   1.351
 1715SOL    HW215480   4.435   3.606   1.365
 1716SOL     OW15481   4.973   9.300   1.109
 1716SOL    HW115482   5.005   9.349   1.189
 1716SOL    HW215483   4.942   9.208   1.135
 1717SOL     OW15484   9.541   0.341   1.260
 1717SOL    HW115485   9.496   0.394   1.188
 1717SOL    HW215486   9.472   0.288   1.309
 1718SOL     OW15487   0.469   1.807   2.878
 1718SOL    HW115488   0.399   1.829   2.809
 1718SOL    HW215489   0.447   1.852   2.964
 1719SOL     OW15490   1.634   0.961   3.033
 1719SOL    HW115491   1.683   1.000   2.954
 1719SOL    HW215492   1.681   0.987   3.117
 1720SOL     OW15493   4.065   9.432   1.530
 1720SOL    HW115494   4.002   9.398   1.600
 1720SOL    HW215495   4.047   9.529   1.513
 1721SOL     OW15496   2.100   3.482   2.073
 1721SOL    HW115497   2.028   3.443   2.131
 1721SOL    HW215498   2.070   3.570   2.036
 1722SOL     OW15499   4.907   8.358   1.909
 1722SOL    HW115500   4.951   8.273   1.879
 1722SOL    HW215501   4.809   8.353   1.891
 1723SOL     OW15502   3.523   0.783   0.390
 1723SOL    HW115503   3.497   0.756   0.298
 1723SOL    HW215504   3.622   0.793   0.396
 1724SOL     OW15505   1.717   9.462   0.490
 1724SOL    HW115506   1.666   9.384   0.456
 1724SOL    HW215507   1.664   9.508   0.561
 1725SOL     OW15508   2.613   4.681   3.053
 1725SOL    HW115509   2.547   4.752   3.027
 1725SOL    HW215510   2.598   4.600   2.997
 1726SOL     OW15511   2.993   7.278   1.140
 1726SOL    HW115512   3.067   7.239   1.086
 1726SOL    HW215513   3.017   7.372   1.166
 1727SOL     OW15514   1.733   1.299   0.603
 1727SOL    HW115515   1.706   1.393   0.582
 1727SOL    HW215516   1.651   1.246   0.628
 1728SOL     OW15517   1.195   6.510   2.988
 1728SOL    HW115518   1.229   6.595   2.950
 1728SOL    HW215519   1.260   6.436   2.968
 1729SOL     OW15520   2.299   5.272   2.517
 1729SOL    HW115521   2.201   5.287   2.525
 1729SOL    HW215522   2.340   5.343   2.461
 1730SOL     OW15523   0.993   6.192   0.991
 1730SOL    HW115524   0.988   6.276   1.045
 1730SOL    HW215525   1.082   6.187   0.947
 1731SOL     OW15526   3.005   6.262   0.928
 1731SOL    HW115527   3.068   6.313   0.868
 1731SOL    HW215528   2.915   6.256   0.885
 1732SOL     OW15529   2.649   0.420   0.145
 1732SOL    HW115530   2.550   0.404   0.154
 1732SOL    HW215531   2.695   0.334   0.123
 1733SOL     OW15532   2.357   1.136   0.124
 1733SOL    HW115533   2.402   1.224   0.108
 1733SOL    HW215534   2.274   1.151   0.177
 1734SOL     OW15535   2.538   7.557   1.082
 1734SOL    HW115536   2.472   7.631   1.099
 1734SOL    HW215537   2.602   7.552   1.158
 1735SOL     OW15538   9.260   5.906   2.066
 1735SOL    HW115539   9.219   5.997   2.054
 1735SOL    HW215540   9.311   5.881   1.984
 1736SOL     OW15541   1.481   8.251   0.395
 1736SOL    HW115542   1.576   8.280   0.396
 1736SOL    HW215543   1.470   8.174   0.333
 1737SOL     OW15544   8.988   8.568   0.348
 1737SOL    HW115545   9.022   8.485   0.393
 1737SOL    HW215546   8.945   8.627   0.416
 1738SOL     OW15547   0.848   0.950   1.083
 1738SOL    HW115548   0.839   0.943   1.182
 1738SOL    HW215549   0.831   0.861   1.042
 1739SOL     OW15550   2.903   5.628   0.903
 1739SOL    HW115551   2.823   5.599   0.851
 1739SOL    HW215552   2.931   5.554   0.964
 1740SOL     OW15553   1.171   3.272   0.926
 1740SOL    HW115554   1.091   3.292   0.869
 1740SOL    HW215555   1.150   3.294   1.021
 1741SOL     OW15556   3.682   6.784   2.307
 1741SOL    HW115557   3.598   6.838   2.309
 1741SOL    HW215558   3.659   6.687   2.302
 1742SOL     OW15559   4.198   1.567   2.295
 1742SOL    HW115560   4.175   1.633   2.224
 1742SOL    HW215561   4.270   1.506   2.261
 1743SOL     OW15562   2.059   5.433   0.918
 1743SOL    HW115563   2.038   5.487   0.999
 1743SOL    HW215564   2.100   5.492   0.848
 1744SOL     OW15565   0.368   7.752   0.139
 1744SOL    HW115566   0.359   7.711   0.230
 1744SOL    HW215567   0.460   7.790   0.129
 1745SOL     OW15568   1.325   2.314   0.550
 1745SOL    HW115569   1.312   2.411   0.569
 1745SOL    HW215570   1.354   2.302   0.455
 1746SOL     OW15571   1.409   1.598   2.134
 1746SOL    HW115572   1.316   1.561   2.129
 1746SOL    HW215573   1.470   1.543   2.077
 1747SOL     OW15574   9.257   1.991   2.735
 1747SOL    HW115575   9.313   2.043   2.670
 1747SOL    HW215576   9.243   1.899   2.700
 1748SOL     OW15577   9.028   8.195   1.318
 1748SOL    HW115578   9.044   8.109   1.270
 1748SOL    HW215579   9.044   8.272   1.255
 1749SOL     OW15580   8.504   4.642   0.616
 1749SOL    HW115581   8.577   4.624   0.683
 1749SOL    HW215582   8.434   4.570   0.624
 1750SOL     OW15583   7.896   2.800   1.296
 1750SOL    HW115584   7.943   2.718   1.264
 1750SOL    HW215585   7.862   2.785   1.389
 1751SOL     OW15586   1.940   7.264   0.688
 1751SOL    HW115587   1.922   7.257   0.786
 1751SOL    HW215588   2.008   7.195   0.662
 1752SOL     OW15589   8.712   4.024   1.178
 1752SOL    HW115590   8.612   4.013   1.180
 1752SOL    HW215591   8.735   4.119   1.199
 1753SOL     OW15592   9.200   9.132   2.133
 1753SOL    HW115593   9.117   9.132   2.188
 1753SOL    HW215594   9.272   9.182   2.182
 1754SOL     OW15595   2.692   4.370   0.355
 1754SOL    HW115596   2.679   4.272   0.363
 1754SOL    HW215597   2.656   4.402   0.267
 1755SOL     OW15598   9.472   9.034   0.353
 1755SOL    HW115599   9.374   9.038   0.367
 1755SOL    HW215600   9.516   9.112   0.397
 1756SOL     OW15601   7.778   5.470   2.713
 1756SOL    HW115602   7.809   5.406   2.783
 1756SOL    HW215603   7.681   5.454   2.694
 1757SOL     OW15604   0.814   6.699   1.378
 1757SOL    HW115605   0.821   6.636   1.456
 1757SOL    HW215606   0.797   6.792   1.412
 1758SOL     OW15607   9.991   3.932   1.986
 1758SOL    HW115608   0.040   3.847   1.964
 1758SOL    HW215609   9.898   3.927   1.951
 1759SOL     OW15610   0.473   6.533   1.483
 1759SOL    HW115611   0.487   6.527   1.582
 1759SOL    HW215612   0.483   6.628   1.453
 1760SOL     OW15613   1.123   0.104   0.423
 1760SOL    HW115614   1.141   0.020   0.475
 1760SOL    HW215615   1.036   0.143   0.452
 1761SOL     OW15616   3.730   0.560   2.898
 1761SOL    HW115617   3.828   0.573   2.915
 1761SOL    HW215618   3.684   0.648   2.897
 1762SOL     OW15619   1.975   8.299   2.906
 1762SOL    HW115620   1.886   8.323   2.945
 1762SOL    HW215621   2.047   8.346   2.957
 1763SOL     OW15622   9.949   1.806   1.203
 1763SOL    HW115623   0.033   1.789   1.152
 1763SOL    HW215624   9.952   1.756   1.290
 1764SOL     OW15625   1.166   2.590   0.325
 1764SOL    HW115626   1.096   2.521   0.346
 1764SOL    HW215627   1.229   2.553   0.256
 1765SOL     OW15628   0.050   4.346   0.694
 1765SOL    HW115629   0.007   4.256   0.690
 1765SOL    HW215630   0.126   4.350   0.629
 1766SOL     OW15631   0.896   4.710   2.238
 1766SOL    HW115632   0.836   4.723   2.160
 1766SOL    HW215633   0.843   4.711   2.323
 1767SOL     OW15634   9.340   4.203   0.749
 1767SOL    HW115635   9.366   4.297   0.727
 1767SOL    HW215636   9.404   4.140   0.705
 1768SOL     OW15637   3.231   2.364   2.578
 1768SOL    HW115638   3.309   2.388   2.635
 1768SOL    HW215639   3.170   2.303   2.628
 1769SOL     OW15640   9.214   2.577   1.850
 1769SOL    HW115641   9.258   2.501   1.803
 1769SOL    HW215642   9.210   2.558   1.948
 1770SOL     OW15643   2.293   9.055   2.617
 1770SOL    HW115644   2.268   9.152   2.621
 1770SOL    HW215645   2.317   9.031   2.523
 1771SOL     OW15646   7.778   0.095   1.107
 1771SOL    HW115647   7.746   0.019   1.051
 1771SOL    HW215648   7.844   0.149   1.055
 1772SOL     OW15649   3.178   8.550   0.655
 1772SOL    HW115650   3.181   8.501   0.742
 1772SOL    HW215651   3.170   8.648   0.673
 1773SOL     OW15652   1.025   4.494   1.217
 1773SOL    HW115653   1.122   4.503   1.194
 1773SOL    HW215654   1.011   4.518   1.313
 1774SOL     OW15655   4.165   0.577   2.396
 1774SOL    HW115656   4.254   0.564   2.439
 1774SOL    HW215657   4.177   0.614   2.304
 1775SOL     OW15658   0.823   7.483   2.361
 1775SOL    HW115659   0.798   7.562   2.306
 1775SOL    HW215660   0.920   7.489   2.386
 1776SOL     OW15661   7.197   8.333   1.982
 1776SOL    HW115662   7.295   8.333   1.967
 1776SOL    HW215663   7.159   8.421   1.951
 1777SOL     OW15664   9.385   1.770   0.666
 1777SOL    HW115665   9.373   1.761   0.567
 1777SOL    HW215666   9.435   1.691   0.701
 1778SOL     OW15667   9.726   3.834   1.317
 1778SOL    HW115668   9.786   3.834   1.397
 1778SOL    HW215669   9.695   3.927   1.299
 1779SOL     OW15670   0.904   9.422   0.667
 1779SOL    HW115671   0.838   9.349   0.681
 1779SOL    HW215672   0.960   9.432   0.750
 1780SOL     OW15673   8.148   1.116   1.342
 1780SOL    HW115674   8.165   1.027   1.384
 1780SOL    HW215675   8.091   1.171   1.403
 1781SOL     OW15676   1.350   7.398   2.440
 1781SOL    HW115677   1.374   7.407   2.343
 1781SOL    HW215678   1.379   7.309   2.474
 1782SOL     OW15679   4.105   0.683   1.824
 1782SOL    HW115680   4.135   0.745   1.752
 1782SOL    HW215681   4.075   0.737   1.903
 1783SOL     OW15682   3.904   5.266   2.297
 1783SOL    HW115683   3.824   5.250   2.240
 1783SOL    HW215684   3.875   5.270   2.393
 1784SOL     OW15685   2.308   0.927   2.463
 1784SOL    HW115686   2.264   0.985   2.395
 1784SOL    HW215687   2.305   0.831   2.434
 1785SOL     OW15688   9.485   3.576   2.701
 1785SOL    HW115689   9.413   3.626   2.750
 1785SOL    HW215690   9.506   3.491   2.749
 1786SOL     OW15691   0.246   4.463   2.163
 1786SOL    HW115692   0.340   4.498   2.160
 1786SOL    HW215693   0.190   4.512   2.098
 1787SOL     OW15694   2.903   2.541   2.524
 1787SOL    HW115695   2.862   2.501   2.606
 1787SOL    HW215696   2.849   2.619   2.493
 1788SOL     OW15697   0.829   2.610   2.252
 1788SOL    HW115698   0.800   2.593   2.346
 1788SOL    HW215699   0.749   2.633   2.196
 1789SOL     OW15700   1.322   1.170   2.548
 1789SOL    HW115701   1.277   1.151   2.636
 1789SOL    HW215702   1.419   1.147   2.555
 1790SOL     OW15703   1.181   9.830   2.964
 1790SOL    HW115704   1.128   9.909   2.998
 1790SOL    HW215705   1.138   9.796   2.880
 1791SOL     OW15706   4.916   9.828   1.386
 1791SOL    HW115707   4.897   9.915   1.340
 1791SOL    HW215708   4.908   9.840   1.485
 1792SOL     OW15709   2.262   5.016   2.017
 1792SOL    HW115710   2.296   4.923   2.032
 1792SOL    HW215711   2.184   5.013   1.954
 1793SOL     OW15712   1.266   2.678   1.311
 1793SOL    HW115713   1.328   2.693   1.388
 1793SOL    HW215714   1.191   2.744   1.315
 1794SOL     OW15715   9.118   0.451   1.515
 1794SOL    HW115716   9.155   0.368   1.557
 1794SOL    HW215717   9.186   0.524   1.520
 1795SOL     OW15718   9.430   2.624   0.702
 1795SOL    HW115719   9.508   2.562   0.709
 1795SOL    HW215720   9.459   2.709   0.659
 1796SOL     OW15721   1.466   1.975   0.529
 1796SOL    HW115722   1.440   1.943   0.620
 1796SOL    HW215723   1.525   2.055   0.537
 1797SOL     OW15724   2.970   4.324   2.391
 1797SOL    HW115725   3.042   4.391   2.375
 1797SOL    HW215726   2.996   4.236   2.351
 1798SOL     OW15727   1.544   8.931   0.181
 1798SOL    HW115728   1.483   8.986   0.125
 1798SOL    HW215729   1.639   8.961   0.167
 1799SOL     OW15730   2.603   8.235   1.966
 1799SOL    HW115731   2.659   8.245   2.048
 1799SOL    HW215732   2.516   8.193   1.990
 1800SOL     OW15733   8.623   0.964   2.628
 1800SOL    HW115734   8.716   0.945   2.596
 1800SOL    HW215735   8.558   0.949   2.553
 1801SOL     OW15736   0.865   8.940   3.129
 1801SOL    HW115737   0.957   8.980   3.137
 1801SOL    HW215738   0.873   8.840   3.123
 1802SOL     OW15739   8.987   2.191   0.898
 1802SOL    HW115740   8.983   2.252   0.977
 1802SOL    HW215741   9.077   2.199   0.855
 1803SOL     OW15742   3.453   9.130   2.309
 1803SOL    HW115743   3.549   9.129   2.279
 1803SOL    HW215744   3.393   9.137   2.229
 1804SOL     OW15745   9.389   1.610   3.092
 1804SOL    HW115746   9.425   1.606   2.999
 1804SOL    HW215747   9.464   1.627   3.157
 1805SOL     OW15748   0.594   0.581   1.852
 1805SOL    HW115749   0.528   0.517   1.812
 1805SOL    HW215750   0.682   0.571   1.805
 1806SOL     OW15751   9.486   8.586   1.784
 1806SOL    HW115752   9.511   8.504   1.732
 1806SOL    HW215753   9.492   8.666   1.725
 1807SOL     OW15754   9.868   5.835   1.136
 1807SOL    HW115755   9.931   5.763   1.108
 1807SOL    HW215756   9.847   5.826   1.234
 1808SOL     OW15757   2.136   4.160   2.719
 1808SOL    HW115758   2.183   4.176   2.806
 1808SOL    HW215759   2.150   4.065   2.692
 1809SOL     OW15760   8.452   1.059   1.968
 1809SOL    HW115761   8.521   1.029   2.033
 1809SOL    HW215762   8.489   1.133   1.911
 1810SOL     OW15763   0.918   7.954   1.747
 1810SOL    HW115764   0.883   7.882   1.686
 1810SOL    HW215765   0.871   7.949   1.835
 1811SOL     OW15766   1.923   3.182   0.147
 1811SOL    HW115767   1.839   3.189   0.093
 1811SOL    HW215768   1.928   3.258   0.211
 1812SOL     OW15769   9.850   4.977   2.692
 1812SOL    HW115770   9.761   4.945   2.723
 1812SOL    HW215771   9.848   5.077   2.681
 1813SOL     OW15772   9.900   6.449   2.747
 1813SOL    HW115773   9.801   6.460   2.757
 1813SOL    HW215774   9.940   6.532   2.708
 1814SOL     OW15775   8.416   0.949   2.815
 1814SOL    HW115776   8.484   0.949   2.742
 1814SOL    HW215777   8.368   1.037   2.816
 1815SOL     OW15778   2.748   3.185   2.853
 1815SOL    HW115779   2.727   3.278   2.882
 1815SOL    HW215780   2.750   3.124   2.932
 1816SOL     OW15781   0.845   0.971   1.359
 1816SOL    HW115782   0.854   0.887   1.412
 1816SOL    HW215783   0.931   1.022   1.361
 1817SOL     OW15784   1.344   3.497   1.739
 1817SOL    HW115785   1.414   3.512   1.808
 1817SOL    HW215786   1.363   3.412   1.690
 1818SOL     OW15787   2.513   5.111   2.456
 1818SOL    HW115788   2.428   5.160   2.475
 1818SOL    HW215789   2.526   5.039   2.524
 1819SOL     OW15790   2.110   7.263   0.172
 1819SOL    HW115791   2.140   7.216   0.254
 1819SOL    HW215792   2.184   7.320   0.136
 1820SOL     OW15793   2.138   7.926   2.637
 1820SOL    HW115794   2.115   7.975   2.721
 1820SOL    HW215795   2.085   7.842   2.632
 1821SOL     OW15796   9.623   5.714   2.542
 1821SOL    HW115797   9.547   5.729   2.479
 1821SOL    HW215798   9.704   5.761   2.508
 1822SOL     OW15799   9.196   5.420   1.188
 1822SOL    HW115800   9.263   5.397   1.258
 1822SOL    HW215801   9.122   5.353   1.189
 1823SOL     OW15802   2.917   9.867   0.826
 1823SOL    HW115803   2.982   9.862   0.751
 1823SOL    HW215804   2.959   9.913   0.904
 1824SOL     OW15805   4.765   2.984   0.449
 1824SOL    HW115806   4.857   3.023   0.456
 1824SOL    HW215807   4.770   2.885   0.460
 1825SOL     OW15808   8.922   7.385   1.235
 1825SOL    HW115809   9.017   7.404   1.207
 1825SOL    HW215810   8.874   7.339   1.160
 1826SOL     OW15811   8.888   2.735   1.328
 1826SOL    HW115812   8.974   2.754   1.281
 1826SOL    HW215813   8.836   2.820   1.338
 1827SOL     OW15814   4.134   7.155   0.779
 1827SOL    HW115815   4.054   7.157   0.719
 1827SOL    HW215816   4.108   7.183   0.871
 1828SOL     OW15817   3.193   1.149   1.301
 1828SOL    HW115818   3.232   1.076   1.358
 1828SOL    HW215819   3.185   1.232   1.355
 1829SOL     OW15820   6.136   7.198   2.696
 1829SOL    HW115821   6.044   7.173   2.665
 1829SOL    HW215822   6.155   7.155   2.784
 1830SOL     OW15823   3.088   6.345   1.179
 1830SOL    HW115824   3.121   6.266   1.231
 1830SOL    HW215825   3.048   6.314   1.093
 1831SOL     OW15826   0.717   8.879   2.415
 1831SOL    HW115827   0.748   8.963   2.459
 1831SOL    HW215828   0.626   8.894   2.374
 1832SOL     OW15829   0.957   1.401   2.419
 1832SOL    HW115830   0.873   1.379   2.469
 1832SOL    HW215831   0.937   1.410   2.322
 1833SOL     OW15832   1.268   9.109   0.140
 1833SOL    HW115833   1.297   9.194   0.183
 1833SOL    HW215834   1.171   9.115   0.117
 1834SOL     OW15835   1.362   4.780   0.398
 1834SOL    HW115836   1.382   4.858   0.457
 1834SOL    HW215837   1.442   4.759   0.342
 1835SOL     OW15838   8.172   4.855   0.115
 1835SOL    HW115839   8.140   4.761   0.105
 1835SOL    HW215840   8.216   4.884   0.030
 1836SOL     OW15841   7.864   1.502   2.141
 1836SOL    HW115842   7.767   1.477   2.139
 1836SOL    HW215843   7.884   1.550   2.226
 1837SOL     OW15844   5.766   9.821   3.092
 1837SOL    HW115845   5.718   9.734   3.085
 1837SOL    HW215846   5.857   9.813   3.052
 1838SOL     OW15847   3.282   9.580   1.809
 1838SOL    HW115848   3.315   9.674   1.822
 1838SOL    HW215849   3.254   9.567   1.714
 1839SOL     OW15850   2.251   9.778   0.038
 1839SOL    HW115851   2.240   9.779   3.980
 1839SOL    HW215852   2.169   9.738   0.080
 1840SOL     OW15853   3.289   1.112   3.141
 1840SOL    HW115854   3.291   1.145   3.047
 1840SOL    HW215855   3.326   1.183   3.202
 1841SOL     OW15856   6.877   9.710   1.904
 1841SOL    HW115857   6.853   9.614   1.886
 1841SOL    HW215858   6.814   9.748   1.971
 1842SOL     OW15859   8.076   9.618   1.682
 1842SOL    HW115860   7.994   9.614   1.739
 1842SOL    HW215861   8.135   9.539   1.702
 1843SOL     OW15862   3.322   5.280   1.227
 1843SOL    HW115863   3.309   5.379   1.221
 1843SOL    HW215864   3.302   5.250   1.320
 1844SOL     OW15865   1.820   1.556   2.288
 1844SOL    HW115866   1.838   1.541   2.191
 1844SOL    HW215867   1.793   1.651   2.303
 1845SOL     OW15868   1.818   2.012   0.161
 1845SOL    HW115869   1.794   1.917   0.179
 1845SOL    HW215870   1.746   2.072   0.198
 1846SOL     OW15871   4.056   4.467   1.304
 1846SOL    HW115872   4.125   4.406   1.264
 1846SOL    HW215873   3.981   4.478   1.239
 1847SOL     OW15874   3.951   1.603   0.724
 1847SOL    HW115875   3.955   1.583   0.626
 1847SOL    HW215876   3.964   1.702   0.738
 1848SOL     OW15877   1.385   3.555   0.993
 1848SOL    HW115878   1.421   3.555   0.899
 1848SOL    HW215879   1.423   3.478   1.043
 1849SOL     OW15880   7.006   8.487   2.817
 1849SOL    HW115881   7.088   8.519   2.864
 1849SOL    HW215882   6.930   8.481   2.883
 1850SOL     OW15883   0.783   8.264   0.145
 1850SOL    HW115884   0.795   8.349   0.196
 1850SOL    HW215885   0.853   8.198   0.174
 1851SOL     OW15886   1.128   3.239   1.605
 1851SOL    HW115887   1.139   3.335   1.579
 1851SOL    HW215888   1.030   3.217   1.610
 1852SOL     OW15889   0.629   6.581   2.682
 1852SOL    HW115890   0.683   6.617   2.607
 1852SOL    HW215891   0.590   6.493   2.656
 1853SOL     OW15892   2.653   6.846   0.140
 1853SOL    HW115893   2.690   6.824   0.050
 1853SOL    HW215894   2.606   6.765   0.177
 1854SOL     OW15895   9.039   3.133   2.989
 1854SOL    HW115896   9.118   3.073   2.980
 1854SOL    HW215897   9.070   3.227   3.001
 1855SOL     OW15898   0.153   9.280   1.215
 1855SOL    HW115899   0.184   9.361   1.266
 1855SOL    HW215900   0.229   9.244   1.160
 1856SOL     OW15901   8.335   2.025   1.400
 1856SOL    HW115902   8.419   1.971   1.396
 1856SOL    HW215903   8.358   2.120   1.419
 1857SOL     OW15904   4.595   3.438   1.541
 1857SOL    HW115905   4.641   3.455   1.454
 1857SOL    HW215906   4.498   3.461   1.533
 1858SOL     OW15907   4.031   8.917   2.822
 1858SOL    HW115908   4.074   8.871   2.744
 1858SOL    HW215909   4.102   8.963   2.876
 1859SOL     OW15910   8.816   0.306   0.536
 1859SOL    HW115911   8.850   0.219   0.500
 1859SOL    HW215912   8.736   0.335   0.484
 1860SOL     OW15913   9.110   5.793   0.327
 1860SOL    HW115914   9.206   5.807   0.304
 1860SOL    HW215915   9.103   5.751   0.418
 1861SOL     OW15916   3.924   9.678   0.088
 1861SOL    HW115917   3.949   9.631   0.004
 1861SOL    HW215918   3.972   9.637   0.165
 1862SOL     OW15919   3.007   5.364   0.176
 1862SOL    HW115920   2.957   5.282   0.151
 1862SOL    HW215921   3.007   5.375   0.275
 1863SOL     OW15922   8.134   1.629   1.640
 1863SOL    HW115923   8.061   1.618   1.708
 1863SOL    HW215924   8.158   1.725   1.632
 1864SOL     OW15925   1.655   8.177   1.437
 1864SOL    HW115926   1.593   8.124   1.495
 1864SOL    HW215927   1.614   8.267   1.418
 1865SOL     OW15928   0.780   6.216   2.301
 1865SOL    HW115929   0.873   6.216   2.263
 1865SOL    HW215930   0.763   6.130   2.349
 1866SOL     OW15931   9.242   3.981   0.305
 1866SOL    HW115932   9.228   3.955   0.401
 1866SOL    HW215933   9.164   3.950   0.250
 1867SOL     OW15934   7.759   1.394   2.932
 1867SOL    HW115935   7.802   1.466   2.987
 1867SOL    HW215936   7.722   1.323   2.992
 1868SOL     OW15937   2.047   3.127   1.815
 1868SOL    HW115938   2.094   3.115   1.902
 1868SOL    HW215939   2.114   3.128   1.741
 1869SOL     OW15940   2.967   6.611   3.024
 1869SOL    HW115941   2.981   6.513   3.022
 1869SOL    HW215942   2.869   6.631   3.028
 1870SOL     OW15943   4.222   0.232   2.586
 1870SOL    HW115944   4.129   0.266   2.599
 1870SOL    HW215945   4.249   0.245   2.490
 1871SOL     OW15946   0.069   7.812   0.591
 1871SOL    HW115947   0.087   7.911   0.585
 1871SOL    HW215948   0.138   7.770   0.650
 1872SOL     OW15949   9.323   2.758   0.917
 1872SOL    HW115950   9.365   2.711   0.839
 1872SOL    HW215951   9.225   2.738   0.918
 1873SOL     OW15952   4.721   3.660   1.650
 1873SOL    HW115953   4.801   3.681   1.594
 1873SOL    HW215954   4.678   3.577   1.617
 1874SOL     OW15955   1.066   9.953   2.555
 1874SOL    HW115956   1.082   0.011   2.635
 1874SOL    HW215957   1.028   0.008   2.481
 1875SOL     OW15958   0.227   6.774   0.354
 1875SOL    HW115959   0.198   6.870   0.355
 1875SOL    HW215960   0.187   6.728   0.275
 1876SOL     OW15961   2.534   9.741   1.179
 1876SOL    HW115962   2.576   9.811   1.122
 1876SOL    HW215963   2.542   9.767   1.275
 1877SOL     OW15964   2.211   6.131   1.524
 1877SOL    HW115965   2.239   6.195   1.453
 1877SOL    HW215966   2.184   6.044   1.482
 1878SOL     OW15967   3.608   3.847   1.935
 1878SOL    HW115968   3.604   3.868   1.837
 1878SOL    HW215969   3.562   3.761   1.953
 1879SOL     OW15970   5.307   9.181   2.385
 1879SOL    HW115971   5.307   9.166   2.286
 1879SOL    HW215972   5.304   9.093   2.432
 1880SOL     OW15973   4.122   1.499   0.157
 1880SOL    HW115974   4.131   1.400   0.170
 1880SOL    HW215975   4.165   1.546   0.233
 1881SOL     OW15976   0.003   1.901   0.605
 1881SOL    HW115977   0.099   1.877   0.600
 1881SOL    HW215978   9.981   1.935   0.697
 1882SOL     OW15979   9.046   1.315   0.742
 1882SOL    HW115980   9.032   1.398   0.796
 1882SOL    HW215981   9.086   1.244   0.800
 1883SOL     OW15982   7.972   9.305   2.032
 1883SOL    HW115983   8.041   9.233   2.033
 1883SOL    HW215984   8.017   9.394   2.036
 1884SOL     OW15985   8.740   0.838   1.891
 1884SOL    HW115986   8.744   0.873   1.798
 1884SOL    HW215987   8.815   0.773   1.906
 1885SOL     OW15988   2.473   8.639   1.403
 1885SOL    HW115989   2.384   8.596   1.416
 1885SOL    HW215990   2.468   8.706   1.329
 1886SOL     OW15991   9.997   3.016   0.337
 1886SOL    HW115992   9.963   2.922   0.336
 1886SOL    HW215993   0.011   3.045   0.432
 1887SOL     OW15994   2.841   4.517   2.704
 1887SOL    HW115995   2.925   4.466   2.689
 1887SOL    HW215996   2.763   4.454   2.702
 1888SOL     OW15997   0.079   1.902   2.184
 1888SOL    HW115998   0.043   1.896   2.091
 1888SOL    HW215999   0.082   1.998   2.212
 1889SOL     OW16000   0.894   7.799   2.564
 1889SOL    HW116001   0.871   7.704   2.580
 1889SOL    HW216002   0.813   7.856   2.575
 1890SOL     OW16003   4.578   9.439   1.358
 1890SOL    HW116004   4.523   9.463   1.437
 1890SOL    HW216005   4.657   9.500   1.353
 1891SOL     OW16006   2.070   6.975   0.148
 1891SOL    HW116007   2.116   6.991   0.235
 1891SOL    HW216008   2.068   7.059   0.095
 1892SOL     OW16009   4.248   2.442   0.968
 1892SOL    HW116010   4.160   2.487   0.982
 1892SOL    HW216011   4.308   2.503   0.915
 1893SOL     OW16012   8.885   6.758   0.837
 1893SOL    HW116013   8.953   6.740   0.907
 1893SOL    HW216014   8.798   6.781   0.880
 1894SOL     OW16015   7.899   4.674   0.322
 1894SOL    HW116016   7.914   4.748   0.387
 1894SOL    HW216017   7.848   4.709   0.243
 1895SOL     OW16018   1.222   1.343   2.942
 1895SOL    HW116019   1.211   1.288   2.859
 1895SOL    HW216020   1.201   1.287   3.022
 1896SOL     OW16021   2.486   7.891   0.730
 1896SOL    HW116022   2.409   7.926   0.783
 1896SOL    HW216023   2.507   7.798   0.760
 1897SOL     OW16024   2.905   5.950   0.527
 1897SOL    HW116025   2.936   5.954   0.432
 1897SOL    HW216026   2.954   5.877   0.575
 1898SOL     OW16027   8.075   3.990   0.174
 1898SOL    HW116028   8.146   3.933   0.133
 1898SOL    HW216029   8.117   4.069   0.218
 1899SOL     OW16030   7.729   9.238   2.692
 1899SOL    HW116031   7.668   9.167   2.726
 1899SOL    HW216032   7.732   9.313   2.757
 1900SOL     OW16033   3.698   9.370   1.446
 1900SOL    HW116034   3.734   9.283   1.480
 1900SOL    HW216035   3.636   9.410   1.513
 1901SOL     OW16036   4.467   2.101   1.714
 1901SOL    HW116037   4.496   2.053   1.797
 1901SOL    HW216038   4.375   2.071   1.689
 1902SOL     OW16039   3.963   1.875   0.796
 1902SOL    HW116040   4.032   1.914   0.858
 1902SOL    HW216041   3.921   1.949   0.743
 1903SOL     OW16042   1.622   8.569   0.527
 1903SOL    HW116043   1.601   8.624   0.609
 1903SOL    HW216044   1.537   8.553   0.476
 1904SOL     OW16045   8.576   7.608   0.534
 1904SOL    HW116046   8.532   7.635   0.619
 1904SOL    HW216047   8.658   7.554   0.555
 1905SOL     OW16048   0.553   0.947   3.024
 1905SOL    HW116049   0.641   0.992   3.040
 1905SOL    HW216050   0.556   0.853   3.056
 1906SOL     OW16051   7.983   2.212   2.460
 1906SOL    HW116052   7.884   2.213   2.454
 1906SOL    HW216053   8.023   2.220   2.369
 1907SOL     OW16054   8.033   9.208   1.694
 1907SOL    HW116055   7.971   9.257   1.633
 1907SOL    HW216056   8.098   9.272   1.734
 1908SOL     OW16057   3.438   0.879   3.103
 1908SOL    HW116058   3.383   0.960   3.125
 1908SOL    HW216059   3.380   0.798   3.107
 1909SOL     OW16060   0.300   3.637   1.582
 1909SOL    HW116061   0.231   3.670   1.517
 1909SOL    HW216062   0.318   3.709   1.649
 1910SOL     OW16063   9.616   4.235   2.679
 1910SOL    HW116064   9.661   4.215   2.591
 1910SOL    HW216065   9.521   4.261   2.662
 1911SOL     OW16066   3.529   2.133   0.478
 1911SOL    HW116067   3.576   2.161   0.394
 1911SOL    HW216068   3.451   2.194   0.495
 1912SOL     OW16069   4.497   8.456   0.860
 1912SOL    HW116070   4.570   8.471   0.927
 1912SOL    HW216071   4.470   8.359   0.862
 1913SOL     OW16072   3.114   2.013   2.226
 1913SOL    HW116073   3.043   2.057   2.172
 1913SOL    HW216074   3.164   2.082   2.278
 1914SOL     OW16075   8.963   5.994   1.418
 1914SOL    HW116076   8.967   6.025   1.513
 1914SOL    HW216077   9.054   6.001   1.376
 1915SOL     OW16078   0.139   7.039   0.324
 1915SOL    HW116079   0.056   7.075   0.367
 1915SOL    HW216080   0.213   7.105   0.332
 1916SOL     OW16081   2.885   2.126   2.078
 1916SOL    HW116082   2.889   2.101   1.982
 1916SOL    HW216083   2.847   2.050   2.131
 1917SOL     OW16084   0.333   7.112   2.753
 1917SOL    HW116085   0.390   7.089   2.832
 1917SOL    HW216086   0.301   7.028   2.709
 1918SOL     OW16087   9.016   3.133   0.289
 1918SOL    HW116088   9.042   3.182   0.372
 1918SOL    HW216089   9.039   3.036   0.299
 1919SOL     OW16090   3.273   4.896   1.113
 1919SOL    HW116091   3.370   4.915   1.129
 1919SOL    HW216092   3.240   4.831   1.181
 1920SOL     OW16093   3.287   1.466   2.958
 1920SOL    HW116094   3.219   1.501   2.893
 1920SOL    HW216095   3.302   1.369   2.941
 1921SOL     OW16096   1.381   7.594   0.266
 1921SOL    HW116097   1.295   7.567   0.307
 1921SOL    HW216098   1.444   7.626   0.338
 1922SOL     OW16099   9.584   4.948   0.541
 1922SOL    HW116100   9.604   5.024   0.479
 1922SOL    HW216101   9.569   4.984   0.634
 1923SOL     OW16102   4.245   5.427   2.598
 1923SOL    HW116103   4.147   5.412   2.589
 1923SOL    HW216104   4.261   5.501   2.663
 1924SOL     OW16105   8.427   4.906   0.246
 1924SOL    HW116106   8.331   4.901   0.219
 1924SOL    HW216107   8.457   4.816   0.279
 1925SOL     OW16108   4.076   8.825   1.206
 1925SOL    HW116109   4.009   8.894   1.233
 1925SOL    HW216110   4.029   8.742   1.178
 1926SOL     OW16111   4.644   8.231   0.569
 1926SOL    HW116112   4.698   8.313   0.549
 1926SOL    HW216113   4.549   8.246   0.543
 1927SOL     OW16114   3.522   4.106   1.991
 1927SOL    HW116115   3.555   4.013   1.978
 1927SOL    HW216116   3.584   4.155   2.053
 1928SOL     OW16117   1.846   3.461   2.993
 1928SOL    HW116118   1.800   3.528   3.052
 1928SOL    HW216119   1.931   3.431   3.036
 1929SOL     OW16120   0.770   7.284   2.931
 1929SOL    HW116121   0.808   7.376   2.941
 1929SOL    HW216122   0.750   7.267   2.834
 1930SOL     OW16123   2.065   4.235   0.814
 1930SOL    HW116124   2.064   4.138   0.791
 1930SOL    HW216125   2.159   4.269   0.809
 1931SOL     OW16126   9.834   8.231   3.132
 1931SOL    HW116127   9.754   8.257   3.186
 1931SOL    HW216128   9.914   8.224   3.193
 1932SOL     OW16129   2.585   7.804   2.614
 1932SOL    HW116130   2.533   7.733   2.662
 1932SOL    HW216131   2.676   7.769   2.591
 1933SOL     OW16132   3.291   1.900   2.968
 1933SOL    HW116133   3.217   1.865   2.912
 1933SOL    HW216134   3.338   1.825   3.014
 1934SOL     OW16135   1.382   4.070   1.381
 1934SOL    HW116136   1.309   4.003   1.368
 1934SOL    HW216137   1.388   4.129   1.300
 1935SOL     OW16138   2.056   8.653   2.805
 1935SOL    HW116139   2.128   8.716   2.778
 1935SOL    HW216140   2.075   8.562   2.767
 1936SOL     OW16141   9.685   3.416   2.157
 1936SOL    HW116142   9.705   3.439   2.252
 1936SOL    HW216143   9.642   3.326   2.153
 1937SOL     OW16144   0.328   6.916   2.111
 1937SOL    HW116145   0.359   6.847   2.176
 1937SOL    HW216146   0.304   6.873   2.024
 1938SOL     OW16147   8.300   7.648   2.291
 1938SOL    HW116148   8.228   7.711   2.261
 1938SOL    HW216149   8.331   7.593   2.213
 1939SOL     OW16150   9.410   0.777   1.087
 1939SOL    HW116151   9.401   0.808   0.993
 1939SOL    HW216152   9.408   0.677   1.090
 1940SOL     OW16153   2.736   8.446   1.839
 1940SOL    HW116154   2.703   8.365   1.887
 1940SOL    HW216155   2.773   8.512   1.904
 1941SOL     OW16156   4.276   5.318   1.727
 1941SOL    HW116157   4.282   5.219   1.719
 1941SOL    HW216158   4.354   5.353   1.778
 1942SOL     OW16159   8.011   9.841   2.752
 1942SOL    HW116160   8.041   9.838   2.656
 1942SOL    HW216161   7.938   9.908   2.762
 1943SOL     OW16162   3.682   8.702   1.735
 1943SOL    HW116163   3.754   8.639   1.706
 1943SOL    HW216164   3.723   8.784   1.774
 1944SOL     OW16165   2.655   8.889   3.122
 1944SOL    HW116166   2.747   8.912   3.090
 1944SOL    HW216167   2.597   8.970   3.118
 1945SOL     OW16168   8.514   1.246   1.282
 1945SOL    HW116169   8.540   1.336   1.320
 1945SOL    HW216170   8.433   1.256   1.225
 1946SOL     OW16171   3.968   3.158   2.044
 1946SOL    HW116172   3.930   3.239   2.090
 1946SOL    HW216173   3.905   3.081   2.054
 1947SOL     OW16174   4.454   0.707   1.120
 1947SOL    HW116175   4.411   0.780   1.067
 1947SOL    HW216176   4.456   0.623   1.065
 1948SOL     OW16177   0.372   6.042   0.712
 1948SOL    HW116178   0.337   6.003   0.798
 1948SOL    HW216179   0.373   6.142   0.718
 1949SOL     OW16180   9.407   9.742   0.149
 1949SOL    HW116181   9.433   9.736   0.053
 1949SOL    HW216182   9.334   9.809   0.160
 1950SOL     OW16183   2.884   6.910   2.776
 1950SOL    HW116184   2.870   6.925   2.874
 1950SOL    HW216185   2.945   6.831   2.764
 1951SOL     OW16186   9.136   6.151   2.023
 1951SOL    HW116187   9.175   6.217   2.088
 1951SOL    HW216188   9.143   6.187   1.930
 1952SOL     OW16189   2.259   2.845   1.024
 1952SOL    HW116190   2.355   2.820   1.031
 1952SOL    HW216191   2.209   2.812   1.104
 1953SOL     OW16192   7.200   8.003   2.372
 1953SOL    HW116193   7.226   7.944   2.296
 1953SOL    HW216194   7.283   8.035   2.419
 1954SOL     OW16195   2.377   2.422   2.982
 1954SOL    HW116196   2.463   2.371   2.982
 1954SOL    HW216197   2.333   2.415   3.072
 1955SOL     OW16198   0.718   0.044   0.581
 1955SOL    HW116199   0.771   9.993   0.649
 1955SOL    HW216200   0.779   0.106   0.532
 1956SOL     OW16201   7.783   2.487   1.065
 1956SOL    HW116202   7.747   2.396   1.045
 1956SOL    HW216203   7.780   2.543   0.982
 1957SOL     OW16204   4.424   0.533   2.470
 1957SOL    HW116205   4.459   0.530   2.564
 1957SOL    HW216206   4.486   0.587   2.413
 1958SOL     OW16207   9.647   2.200   2.676
 1958SOL    HW116208   9.673   2.280   2.623
 1958SOL    HW216209   9.561   2.163   2.640
 1959SOL     OW16210   3.461   2.286   2.117
 1959SOL    HW116211   3.390   2.346   2.154
 1959SOL    HW216212   3.421   2.196   2.098
 1960SOL     OW16213   7.810   1.079   1.445
 1960SOL    HW116214   7.885   1.139   1.474
 1960SOL    HW216215   7.728   1.100   1.498
 1961SOL     OW16216   6.054   7.938   3.091
 1961SOL    HW116217   6.136   7.887   3.117
 1961SOL    HW216218   5.977   7.911   3.148
 1962SOL     OW16219   7.903   0.813   0.293
 1962SOL    HW116220   7.814   0.767   0.294
 1962SOL    HW216221   7.923   0.849   0.384
 1963SOL     OW16222   3.759   0.306   1.572
 1963SOL    HW116223   3.805   0.377   1.624
 1963SOL    HW216224   3.827   0.249   1.525
 1964SOL     OW16225   0.012   4.305   2.224
 1964SOL    HW116226   0.094   4.353   2.194
 1964SOL    HW216227   9.986   4.334   2.316
 1965SOL     OW16228   9.541   0.898   2.651
 1965SOL    HW116229   9.455   0.854   2.677
 1965SOL    HW216230   9.587   0.932   2.733
 1966SOL     OW16231   1.689   5.904   0.974
 1966SOL    HW116232   1.735   5.991   0.956
 1966SOL    HW216233   1.749   5.828   0.947
 1967SOL     OW16234   2.436   7.950   1.667
 1967SOL    HW116235   2.506   8.021   1.671
 1967SOL    HW216236   2.464   7.878   1.603
 1968SOL     OW16237   9.607   9.134   1.007
 1968SOL    HW116238   9.593   9.107   0.911
 1968SOL    HW216239   9.682   9.080   1.046
 1969SOL     OW16240   2.640   7.312   2.664
 1969SOL    HW116241   2.588   7.340   2.744
 1969SOL    HW216242   2.599   7.229   2.625
 1970SOL     OW16243   4.268   8.729   2.330
 1970SOL    HW116244   4.307   8.637   2.326
 1970SOL    HW216245   4.168   8.723   2.330
 1971SOL     OW16246   5.600   8.583   3.070
 1971SOL    HW116247   5.586   8.574   3.169
 1971SOL    HW216248   5.698   8.591   3.052
 1972SOL     OW16249   7.678   0.903   1.972
 1972SOL    HW116250   7.689   0.982   2.032
 1972SOL    HW216251   7.585   0.902   1.935
 1973SOL     OW16252   8.241   2.724   2.894
 1973SOL    HW116253   8.319   2.786   2.888
 1973SOL    HW216254   8.171   2.752   2.828
 1974SOL     OW16255   4.008   1.002   0.142
 1974SOL    HW116256   4.017   0.924   0.079
 1974SOL    HW216257   3.931   0.987   0.203
 1975SOL     OW16258   8.607   8.357   1.335
 1975SOL    HW116259   8.670   8.280   1.352
 1975SOL    HW216260   8.536   8.328   1.270
 1976SOL     OW16261   1.824   6.142   0.946
 1976SOL    HW116262   1.871   6.141   0.857
 1976SOL    HW216263   1.891   6.157   1.019
 1977SOL     OW16264   7.435   7.113   2.678
 1977SOL    HW116265   7.482   7.129   2.591
 1977SOL    HW216266   7.339   7.138   2.669
 1978SOL     OW16267   3.315   0.040   1.258
 1978SOL    HW116268   3.265   0.127   1.254
 1978SOL    HW216269   3.270   9.979   1.323
 1979SOL     OW16270   3.233   3.447   1.031
 1979SOL    HW116271   3.250   3.405   1.120
 1979SOL    HW216272   3.139   3.482   1.028
 1980SOL     OW16273   8.671   2.867   1.075
 1980SOL    HW116274   8.630   2.793   1.128
 1980SOL    HW216275   8.599   2.916   1.025
 1981SOL     OW16276   2.621   4.681   0.859
 1981SOL    HW116277   2.594   4.595   0.903
 1981SOL    HW216278   2.682   4.732   0.919
 1982SOL     OW16279   0.163   3.882   0.322
 1982SOL    HW116280   0.168   3.940   0.403
 1982SOL    HW216281   0.249   3.887   0.272
 1983SOL     OW16282   3.272   7.766   0.223
 1983SOL    HW116283   3.240   7.833   0.290
 1983SOL    HW216284   3.239   7.791   0.132
 1984SOL     OW16285   2.197   4.333   2.510
 1984SOL    HW116286   2.187   4.272   2.589
 1984SOL    HW216287   2.294   4.343   2.488
 1985SOL     OW16288   8.916   7.371   3.063
 1985SOL    HW116289   8.973   7.435   3.114
 1985SOL    HW216290   8.920   7.280   3.105
 1986SOL     OW16291   7.956   9.997   3.065
 1986SOL    HW116292   8.050   9.984   3.034
 1986SOL    HW216293   7.933   0.094   3.061
 1987SOL     OW16294   9.223   2.546   1.487
 1987SOL    HW116295   9.251   2.463   1.533
 1987SOL    HW216296   9.240   2.538   1.389
 1988SOL     OW16297   8.432   6.788   2.928
 1988SOL    HW116298   8.449   6.723   3.002
 1988SOL    HW216299   8.346   6.836   2.945
 1989SOL     OW16300   9.191   6.258   1.761
 1989SOL    HW116301   9.256   6.203   1.710
 1989SOL    HW216302   9.239   6.330   1.810
 1990SOL     OW16303   2.736   9.683   2.586
 1990SOL    HW116304   2.819   9.700   2.641
 1990SOL    HW216305   2.693   9.598   2.616
 1991SOL     OW16306   9.041   9.977   2.803
 1991SOL    HW116307   9.097   9.944   2.727
 1991SOL    HW216308   9.019   9.900   2.863
 1992SOL     OW16309   0.157   9.857   2.880
 1992SOL    HW116310   0.239   9.811   2.912
 1992SOL    HW216311   0.130   9.928   2.945
 1993SOL     OW16312   3.261   5.891   2.657
 1993SOL    HW116313   3.294   5.979   2.623
 1993SOL    HW216314   3.198   5.906   2.733
 1994SOL     OW16315   8.079   8.836   1.387
 1994SOL    HW116316   8.052   8.888   1.306
 1994SOL    HW216317   8.131   8.756   1.360
 1995SOL     OW16318   3.054   4.021   0.277
 1995SOL    HW116319   3.151   3.997   0.277
 1995SOL    HW216320   3.044   4.120   0.289
 1996SOL     OW16321   9.196   0.895   1.602
 1996SOL    HW116322   9.186   0.801   1.570
 1996SOL    HW216323   9.292   0.922   1.596
 1997SOL     OW16324   4.142   2.109   2.718
 1997SOL    HW116325   4.048   2.075   2.717
 1997SOL    HW216326   4.158   2.158   2.804
 1998SOL     OW16327   0.436   3.666   0.605
 1998SOL    HW116328   0.532   3.659   0.634
 1998SOL    HW216329   0.431   3.659   0.506
 1999SOL     OW16330   2.371   4.200   0.314
 1999SOL    HW116331   2.330   4.166   0.230
 1999SOL    HW216332   2.300   4.233   0.376
 2000SOL     OW16333   3.041   4.090   2.270
 2000SOL    HW116334   2.978   4.025   2.313
 2000SOL    HW216335   3.011   4.107   2.176
 2001SOL     OW16336   9.987   3.660   2.432
 2001SOL    HW116337   0.044   3.584   2.404
 2001SOL    HW216338   9.921   3.682   2.360
 2002SOL     OW16339   4.734   7.442   1.037
 2002SOL    HW116340   4.798   7.385   0.984
 2002SOL    HW216341   4.654   7.463   0.982
 2003SOL     OW16342   9.047   2.792   1.819
 2003SOL    HW116343   9.109   2.720   1.849
 2003SOL    HW216344   9.017   2.773   1.726
 2004SOL     OW16345   1.983   1.509   2.754
 2004SOL    HW116346   1.966   1.435   2.820
 2004SOL    HW216347   2.075   1.545   2.767
 2005SOL     OW16348   1.941   0.383   0.729
 2005SOL    HW116349   1.953   0.438   0.646
 2005SOL    HW216350   1.884   0.434   0.794
 2006SOL     OW16351   0.356   7.943   1.224
 2006SOL    HW116352   0.297   8.005   1.275
 2006SOL    HW216353   0.403   7.881   1.287
 2007SOL     OW16354   3.512   2.521   1.403
 2007SOL    HW116355   3.450   2.590   1.438
 2007SOL    HW216356   3.477   2.485   1.317
 2008SOL     OW16357   1.904   0.860   2.676
 2008SOL    HW116358   1.833   0.873   2.606
 2008SOL    HW216359   1.923   0.762   2.686
 2009SOL     OW16360   4.756   1.161   1.559
 2009SOL    HW116361   4.678   1.174   1.498
 2009SOL    HW216362   4.724   1.162   1.654
 2010SOL     OW16363   2.834   5.274   1.819
 2010SOL    HW116364   2.908   5.209   1.801
 2010SOL    HW216365   2.822   5.335   1.740
 2011SOL     OW16366   1.966   5.043   0.205
 2011SOL    HW116367   1.969   5.094   0.291
 2011SOL    HW216368   1.903   4.966   0.214
 2012SOL     OW16369   9.179   7.792   1.410
 2012SOL    HW116370   9.233   7.709   1.397
 2012SOL    HW216371   9.139   7.792   1.501
 2013SOL     OW16372   5.184   0.695   2.426
 2013SOL    HW116373   5.154   0.632   2.354
 2013SOL    HW216374   5.210   0.782   2.385
 2014SOL     OW16375   3.686   4.157   2.422
 2014SOL    HW116376   3.641   4.092   2.483
 2014SOL    HW216377   3.754   4.210   2.473
 2015SOL     OW16378   0.578   3.712   1.943
 2015SOL    HW116379   0.498   3.751   1.896
 2015SOL    HW216380   0.650   3.781   1.947
 2016SOL     OW16381   1.468   0.121   2.518
 2016SOL    HW116382   1.505   0.028   2.526
 2016SOL    HW216383   1.386   0.120   2.461
 2017SOL     OW16384   0.152   7.205   1.556
 2017SOL    HW116385   0.115   7.227   1.466
 2017SOL    HW216386   0.148   7.285   1.615
 2018SOL     OW16387   3.266   4.387   0.531
 2018SOL    HW116388   3.261   4.486   0.540
 2018SOL    HW216389   3.269   4.362   0.434
 2019SOL     OW16390   6.391   7.261   2.592
 2019SOL    HW116391   6.302   7.228   2.622
 2019SOL    HW216392   6.461   7.229   2.656
 2020SOL     OW16393   9.572   7.601   1.229
 2020SOL    HW116394   9.537   7.671   1.167
 2020SOL    HW216395   9.627   7.645   1.300
 2021SOL     OW16396   1.349   3.762   3.001
 2021SOL    HW116397   1.312   3.816   2.926
 2021SOL    HW216398   1.279   3.751   3.072
 2022SOL     OW16399   1.171   7.259   2.860
 2022SOL    HW116400   1.149   7.350   2.824
 2022SOL    HW216401   1.183   7.195   2.784
 2023SOL     OW16402   1.828   5.138   1.510
 2023SOL    HW116403   1.846   5.104   1.418
 2023SOL    HW216404   1.731   5.128   1.532
 2024SOL     OW16405   3.080   6.758   1.197
 2024SOL    HW116406   3.033   6.685   1.246
 2024SOL    HW216407   3.132   6.719   1.120
 2025SOL     OW16408   0.269   8.366   0.977
 2025SOL    HW116409   0.313   8.279   0.996
 2025SOL    HW216410   0.237   8.407   1.062
 2026SOL     OW16411   9.028   7.534   0.442
 2026SOL    HW116412   9.126   7.550   0.436
 2026SOL    HW216413   8.979   7.609   0.397
 2027SOL     OW16414   2.375   3.037   3.080
 2027SOL    HW116415   2.277   3.059   3.083
 2027SOL    HW216416   2.428   3.120   3.094
 2028SOL     OW16417   1.990   6.355   2.156
 2028SOL    HW116418   2.034   6.439   2.188
 2028SOL    HW216419   1.892   6.373   2.140
 2029SOL     OW16420   2.870   4.754   3.093
 2029SOL    HW116421   2.909   4.711   3.174
 2029SOL    HW216422   2.774   4.730   3.086
 2030SOL     OW16423   0.763   2.560   0.111
 2030SOL    HW116424   0.802   2.598   0.195
 2030SOL    HW216425   0.809   2.474   0.088
 2031SOL     OW16426   8.837   6.152   0.942
 2031SOL    HW116427   8.760   6.127   1.001
 2031SOL    HW216428   8.910   6.193   0.998
 2032SOL     OW16429   0.017   5.587   2.904
 2032SOL    HW116430   0.007   5.615   2.809
 2032SOL    HW216431   9.928   5.592   2.949
 2033SOL     OW16432   0.503   1.128   0.953
 2033SOL    HW116433   0.584   1.152   1.007
 2033SOL    HW216434   0.532   1.082   0.868
 2034SOL     OW16435   4.728   0.739   1.129
 2034SOL    HW116436   4.770   0.779   1.210
 2034SOL    HW216437   4.630   0.728   1.144
 2035SOL     OW16438   8.633   9.129   2.802
 2035SOL    HW116439   8.567   9.124   2.727
 2035SOL    HW216440   8.632   9.220   2.842
 2036SOL     OW16441   2.212   7.118   0.887
 2036SOL    HW116442   2.254   7.059   0.957
 2036SOL    HW216443   2.123   7.149   0.920
 2037SOL     OW16444   2.969   9.204   0.705
 2037SOL    HW116445   2.948   9.292   0.661
 2037SOL    HW216446   3.055   9.168   0.670
 2038SOL     OW16447   7.056   9.231   1.428
 2038SOL    HW116448   7.122   9.303   1.407
 2038SOL    HW216449   7.059   9.212   1.526
 2039SOL     OW16450   2.513   7.759   1.482
 2039SOL    HW116451   2.574   7.807   1.419
 2039SOL    HW216452   2.435   7.722   1.431
 2040SOL     OW16453   4.754   0.986   1.995
 2040SOL    HW116454   4.829   0.924   2.018
 2040SOL    HW216455   4.728   1.039   2.076
 2041SOL     OW16456   9.343   8.349   1.436
 2041SOL    HW116457   9.300   8.353   1.527
 2041SOL    HW216458   9.316   8.430   1.384
 2042SOL     OW16459   9.012   6.340   0.719
 2042SOL    HW116460   9.078   6.357   0.645
 2042SOL    HW216461   8.978   6.246   0.712
 2043SOL     OW16462   2.792   1.568   0.685
 2043SOL    HW116463   2.858   1.494   0.696
 2043SOL    HW216464   2.812   1.641   0.751
 2044SOL     OW16465   4.639   3.553   0.205
 2044SOL    HW116466   4.564   3.607   0.244
 2044SOL    HW216467   4.695   3.610   0.146
 2045SOL     OW16468   8.371   5.638   0.470
 2045SOL    HW116469   8.409   5.554   0.431
 2045SOL    HW216470   8.389   5.714   0.409
 2046SOL     OW16471   1.262   6.291   1.281
 2046SOL    HW116472   1.293   6.376   1.324
 2046SOL    HW216473   1.341   6.238   1.251
 2047SOL     OW16474   1.366   1.192   1.279
 2047SOL    HW116475   1.426   1.113   1.267
 2047SOL    HW216476   1.420   1.276   1.273
 2048SOL     OW16477   0.734   1.376   2.571
 2048SOL    HW116478   0.715   1.474   2.577
 2048SOL    HW216479   0.650   1.325   2.591
 2049SOL     OW16480   2.110   6.342   3.130
 2049SOL    HW116481   2.057   6.337   3.214
 2049SOL    HW216482   2.115   6.437   3.099
 2050SOL     OW16483   2.540   6.611   0.238
 2050SOL    HW116484   2.507   6.517   0.228
 2050SOL    HW216485   2.584   6.622   0.327
 2051SOL     OW16486   3.413   1.039   0.401
 2051SOL    HW116487   3.440   1.108   0.334
 2051SOL    HW216488   3.455   0.951   0.378
 2052SOL     OW16489   4.342   8.861   1.984
 2052SOL    HW116490   4.357   8.904   1.895
 2052SOL    HW216491   4.367   8.925   2.056
 2053SOL     OW16492   4.333   3.332   1.240
 2053SOL    HW116493   4.396   3.378   1.178
 2053SOL    HW216494   4.368   3.240   1.260
 2054SOL     OW16495   1.125   5.596   2.046
 2054SOL    HW116496   1.213   5.591   2.092
 2054SOL    HW216497   1.098   5.506   2.013
 2055SOL     OW16498   6.174   9.390   3.079
 2055SOL    HW116499   6.212   9.302   3.049
 2055SOL    HW216500   6.074   9.386   3.076
 2056SOL     OW16501   8.065   8.737   2.388
 2056SOL    HW116502   8.089   8.805   2.318
 2056SOL    HW216503   7.982   8.767   2.435
 2057SOL     OW16504   9.687   3.893   2.525
 2057SOL    HW116505   9.733   3.828   2.463
 2057SOL    HW216506   9.728   3.983   2.514
 2058SOL     OW16507   3.957   2.332   0.116
 2058SOL    HW116508   3.868   2.374   0.098
 2058SOL    HW216509   4.020   2.401   0.151
 2059SOL     OW16510   8.609   7.920   0.781
 2059SOL    HW116511   8.579   8.015   0.788
 2059SOL    HW216512   8.703   7.916   0.748
 2060SOL     OW16513   4.570   2.806   1.060
 2060SOL    HW116514   4.497   2.756   1.108
 2060SOL    HW216515   4.538   2.896   1.034
 2061SOL     OW16516   0.345   9.383   0.735
 2061SOL    HW116517   0.274   9.312   0.731
 2061SOL    HW216518   0.419   9.353   0.795
 2062SOL     OW16519   7.560   8.878   1.224
 2062SOL    HW116520   7.599   8.846   1.310
 2062SOL    HW216521   7.577   8.810   1.153
 2063SOL     OW16522   4.349   0.118   2.992
 2063SOL    HW116523   4.376   0.160   2.906
 2063SOL    HW216524   4.254   0.086   2.986
 2064SOL     OW16525   9.075   7.952   1.206
 2064SOL    HW116526   9.132   7.961   1.125
 2064SOL    HW216527   9.115   7.882   1.267
 2065SOL     OW16528   4.096   0.988   1.155
 2065SOL    HW116529   4.118   1.046   1.076
 2065SOL    HW216530   4.128   0.895   1.138
 2066SOL     OW16531   4.461   2.926   2.620
 2066SOL    HW116532   4.491   2.864   2.548
 2066SOL    HW216533   4.537   2.944   2.683
 2067SOL     OW16534   4.373   4.118   1.990
 2067SOL    HW116535   4.343   4.040   2.045
 2067SOL    HW216536   4.294   4.162   1.948
 2068SOL     OW16537   9.449   7.777   1.049
 2068SOL    HW116538   9.358   7.744   1.073
 2068SOL    HW216539   9.474   7.744   0.958
 2069SOL     OW16540   9.587   1.706   2.614
 2069SOL    HW116541   9.559   1.641   2.543
 2069SOL    HW216542   9.584   1.798   2.577
 2070SOL     OW16543   1.316   8.114   0.614
 2070SOL    HW116544   1.364   8.192   0.573
 2070SOL    HW216545   1.333   8.032   0.560
 2071SOL     OW16546   8.099   4.943   0.741
 2071SOL    HW116547   8.193   4.927   0.711
 2071SOL    HW216548   8.063   4.861   0.784
 2072SOL     OW16549   4.126   6.494   2.626
 2072SOL    HW116550   4.094   6.548   2.548
 2072SOL    HW216551   4.073   6.517   2.708
 2073SOL     OW16552   3.416   7.118   0.643
 2073SOL    HW116553   3.492   7.080   0.589
 2073SOL    HW216554   3.398   7.211   0.613
 2074SOL     OW16555   1.748   3.362   1.075
 2074SOL    HW116556   1.767   3.304   0.995
 2074SOL    HW216557   1.651   3.352   1.100
 2075SOL     OW16558   9.878   8.681   0.351
 2075SOL    HW116559   9.836   8.600   0.390
 2075SOL    HW216560   9.820   8.761   0.368
 2076SOL     OW16561   8.529   9.374   0.325
 2076SOL    HW116562   8.603   9.397   0.387
 2076SOL    HW216563   8.562   9.378   0.231
 2077SOL     OW16564   2.591   9.463   1.160
 2077SOL    HW116565   2.645   9.427   1.084
 2077SOL    HW216566   2.578   9.561   1.149
 2078SOL     OW16567   9.628   8.863   2.929
 2078SOL    HW116568   9.544   8.875   2.982
 2078SOL    HW216569   9.692   8.807   2.981
 2079SOL     OW16570   1.529   0.680   2.091
 2079SOL    HW116571   1.583   0.711   2.013
 2079SOL    HW216572   1.545   0.583   2.107
 2080SOL     OW16573   1.406   0.903   0.251
 2080SOL    HW116574   1.391   0.975   0.182
 2080SOL    HW216575   1.325   0.898   0.310
 2081SOL     OW16576   9.980   6.246   0.528
 2081SOL    HW116577   9.893   6.288   0.502
 2081SOL    HW216578   0.048   6.266   0.458
 2082SOL     OW16579   3.956   4.304   0.738
 2082SOL    HW116580   3.948   4.324   0.835
 2082SOL    HW216581   3.882   4.350   0.688
 2083SOL     OW16582   8.098   0.878   1.744
 2083SOL    HW116583   8.135   0.916   1.828
 2083SOL    HW216584   8.119   0.781   1.738
 2084SOL     OW16585   2.918   6.313   0.223
 2084SOL    HW116586   3.001   6.362   0.249
 2084SOL    HW216587   2.930   6.215   0.242
 2085SOL     OW16588   1.980   1.361   1.385
 2085SOL    HW116589   2.079   1.377   1.380
 2085SOL    HW216590   1.942   1.361   1.292
 2086SOL     OW16591   3.305   0.676   0.533
 2086SOL    HW116592   3.276   0.607   0.467
 2086SOL    HW216593   3.385   0.725   0.497
 2087SOL     OW16594   0.366   6.437   2.349
 2087SOL    HW116595   0.276   6.468   2.380
 2087SOL    HW216596   0.357   6.346   2.308
 2088SOL     OW16597   3.197   5.567   0.576
 2088SOL    HW116598   3.253   5.594   0.497
 2088SOL    HW216599   3.252   5.575   0.659
 2089SOL     OW16600   0.559   8.108   0.130
 2089SOL    HW116601   0.587   8.012   0.129
 2089SOL    HW216602   0.637   8.166   0.108
 2090SOL     OW16603   7.794   5.934   2.711
 2090SOL    HW116604   7.744   6.018   2.689
 2090SOL    HW216605   7.793   5.921   2.810
 2091SOL     OW16606   0.964   5.366   2.311
 2091SOL    HW116607   0.938   5.360   2.407
 2091SOL    HW216608   0.923   5.448   2.271
 2092SOL     OW16609   9.525   4.374   0.959
 2092SOL    HW116610   9.607   4.421   0.994
 2092SOL    HW216611   9.462   4.357   1.034
 2093SOL     OW16612   0.572   9.309   2.137
 2093SOL    HW116613   0.607   9.361   2.060
 2093SOL    HW216614   0.550   9.216   2.107
 2094SOL     OW16615   8.939   4.808   2.893
 2094SOL    HW116616   8.920   4.714   2.920
 2094SOL    HW216617   8.991   4.853   2.965
 2095SOL     OW16618   2.082   6.704   0.099
 2095SOL    HW116619   2.104   6.693   0.002
 2095SOL    HW216620   2.070   6.801   0.120
 2096SOL     OW16621   9.220   9.635   0.955
 2096SOL    HW116622   9.216   9.727   0.994
 2096SOL    HW216623   9.236   9.568   1.028
 2097SOL     OW16624   7.960   8.462   1.075
 2097SOL    HW116625   7.944   8.507   1.163
 2097SOL    HW216626   8.056   8.474   1.048
 2098SOL     OW16627   3.156   1.095   0.476
 2098SOL    HW116628   3.109   1.007   0.464
 2098SOL    HW216629   3.250   1.087   0.441
 2099SOL     OW16630   8.976   1.556   0.851
 2099SOL    HW116631   9.041   1.630   0.839
 2099SOL    HW216632   8.891   1.577   0.803
 2100SOL     OW16633   2.011   6.194   1.132
 2100SOL    HW116634   1.981   6.228   1.221
 2100SOL    HW216635   2.103   6.228   1.112
 2101SOL     OW16636   1.006   6.353   1.583
 2101SOL    HW116637   0.933   6.422   1.589
 2101SOL    HW216638   1.093   6.395   1.605
 2102SOL     OW16639   8.432   2.739   0.819
 2102SOL    HW116640   8.398   2.686   0.742
 2102SOL    HW216641   8.395   2.702   0.904
 2103SOL     OW16642   9.791   5.461   1.096
 2103SOL    HW116643   9.765   5.387   1.158
 2103SOL    HW216644   9.823   5.423   1.010
 2104SOL     OW16645   8.663   5.021   0.309
 2104SOL    HW116646   8.578   4.977   0.281
 2104SOL    HW216647   8.738   4.956   0.302
 2105SOL     OW16648   9.789   9.780   2.090
 2105SOL    HW116649   9.787   9.846   2.014
 2105SOL    HW216650   9.708   9.794   2.147
 2106SOL     OW16651   4.814   9.593   1.299
 2106SOL    HW116652   4.848   9.682   1.329
 2106SOL    HW216653   4.889   9.527   1.299
 2107SOL     OW16654   1.812   1.068   2.846
 2107SOL    HW116655   1.791   1.140   2.780
 2107SOL    HW216656   1.854   0.991   2.799
 2108SOL     OW16657   4.265   8.658   1.625
 2108SOL    HW116658   4.339   8.677   1.561
 2108SOL    HW216659   4.212   8.741   1.640
 2109SOL     OW16660   7.100   9.850   1.073
 2109SOL    HW116661   7.112   9.937   1.025
 2109SOL    HW216662   7.187   9.824   1.115
 2110SOL     OW16663   3.438   4.929   1.540
 2110SOL    HW116664   3.423   4.834   1.514
 2110SOL    HW216665   3.536   4.947   1.546
 2111SOL     OW16666   9.735   5.068   0.965
 2111SOL    HW116667   9.815   5.074   0.905
 2111SOL    HW216668   9.763   5.037   1.056
 2112SOL     OW16669   9.924   4.953   2.972
 2112SOL    HW116670   9.883   5.043   2.987
 2112SOL    HW216671   9.943   4.941   2.874
 2113SOL     OW16672   8.341   2.104   0.970
 2113SOL    HW116673   8.422   2.080   1.023
 2113SOL    HW216674   8.368   2.154   0.888
 2114SOL     OW16675   3.170   2.497   0.607
 2114SOL    HW116676   3.109   2.509   0.685
 2114SOL    HW216677   3.139   2.554   0.531
 2115SOL     OW16678   8.184   2.636   0.407
 2115SOL    HW116679   8.221   2.724   0.375
 2115SOL    HW216680   8.086   2.645   0.422
 2116SOL     OW16681   9.863   8.360   2.463
 2116SOL    HW116682   9.772   8.332   2.493
 2116SOL    HW216683   9.922   8.373   2.542
 2117SOL     OW16684   9.526   3.905   2.751
 2117SOL    HW116685   9.592   3.890   2.677
 2117SOL    HW216686   9.450   3.961   2.717
 2118SOL     OW16687   6.821   9.343   1.358
 2118SOL    HW116688   6.823   9.360   1.260
 2118SOL    HW216689   6.906   9.297   1.385
 2119SOL     OW16690   4.241   9.161   0.971
 2119SOL    HW116691   4.227   9.062   0.975
 2119SOL    HW216692   4.298   9.184   0.892
 2120SOL     OW16693   4.486   1.272   2.508
 2120SOL    HW116694   4.480   1.295   2.605
 2120SOL    HW216695   4.401   1.229   2.478
 2121SOL     OW16696   8.436   9.453   1.654
 2121SOL    HW116697   8.527   9.411   1.654
 2121SOL    HW216698   8.388   9.427   1.570
 2122SOL     OW16699   7.297   8.999   2.787
 2122SOL    HW116700   7.271   8.982   2.882
 2122SOL    HW216701   7.217   9.024   2.733
 2123SOL     OW16702   9.154   5.437   0.441
 2123SOL    HW116703   9.171   5.342   0.467
 2123SOL    HW216704   9.116   5.487   0.520
 2124SOL     OW16705   0.970   1.980   1.387
 2124SOL    HW116706   0.877   1.962   1.418
 2124SOL    HW216707   0.990   2.077   1.397
 2125SOL     OW16708   9.103   8.536   1.852
 2125SOL    HW116709   9.134   8.517   1.946
 2125SOL    HW216710   9.117   8.633   1.832
 2126SOL     OW16711   4.057   8.234   1.667
 2126SOL    HW116712   4.073   8.315   1.610
 2126SOL    HW216713   4.068   8.152   1.612
 2127SOL     OW16714   8.889   3.669   0.418
 2127SOL    HW116715   8.831   3.641   0.341
 2127SOL    HW216716   8.972   3.613   0.419
 2128SOL     OW16717   2.221   6.762   0.557
 2128SOL    HW116718   2.301   6.809   0.593
 2128SOL    HW216719   2.241   6.730   0.464
 2129SOL     OW16720   3.811   3.908   0.183
 2129SOL    HW116721   3.836   4.000   0.154
 2129SOL    HW216722   3.734   3.913   0.246
 2130SOL     OW16723   3.877   7.870   3.104
 2130SOL    HW116724   3.910   7.867   3.198
 2130SOL    HW216725   3.933   7.933   3.050
 2131SOL     OW16726   1.340   8.339   2.941
 2131SOL    HW116727   1.257   8.391   2.962
 2131SOL    HW216728   1.384   8.377   2.860
 2132SOL     OW16729   1.938   7.862   3.013
 2132SOL    HW116730   1.872   7.909   3.071
 2132SOL    HW216731   1.991   7.929   2.961
 2133SOL     OW16732   8.888   7.622   1.974
 2133SOL    HW116733   8.791   7.604   1.960
 2133SOL    HW216734   8.933   7.540   2.009
 2134SOL     OW16735   2.546   5.808   2.480
 2134SOL    HW116736   2.476   5.749   2.518
 2134SOL    HW216737   2.546   5.896   2.528
 2135SOL     OW16738   2.780   5.668   1.664
 2135SOL    HW116739   2.714   5.646   1.735
 2135SOL    HW216740   2.817   5.583   1.626
 2136SOL     OW16741   4.241   1.128   2.725
 2136SOL    HW116742   4.315   1.192   2.746
 2136SOL    HW216743   4.229   1.123   2.625
 2137SOL     OW16744   2.184   0.065   2.981
 2137SOL    HW116745   2.154   0.047   2.887
 2137SOL    HW216746   2.233   0.152   2.985
 2138SOL     OW16747   9.567   4.748   0.357
 2138SOL    HW116748   9.639   4.679   0.364
 2138SOL    HW216749   9.576   4.814   0.431
 2139SOL     OW16750   9.168   0.317   0.454
 2139SOL    HW116751   9.175   0.366   0.541
 2139SOL    HW216752   9.183   0.220   0.470
 2140SOL     OW16753   3.807   1.900   0.410
 2140SOL    HW116754   3.775   1.994   0.428
 2140SOL    HW216755   3.904   1.893   0.433
 2141SOL     OW16756   9.651   4.752   1.703
 2141SOL    HW116757   9.665   4.705   1.616
 2141SOL    HW216758   9.604   4.839   1.687
 2142SOL     OW16759   3.076   1.034   2.145
 2142SOL    HW116760   3.086   1.053   2.243
 2142SOL    HW216761   2.991   1.075   2.112
 2143SOL     OW16762   3.103   2.568   0.885
 2143SOL    HW116763   3.152   2.489   0.922
 2143SOL    HW216764   3.007   2.544   0.871
 2144SOL     OW16765   4.045   9.578   0.305
 2144SOL    HW116766   4.136   9.545   0.325
 2144SOL    HW216767   4.021   9.651   0.369
 2145SOL     OW16768   4.177   8.471   1.119
 2145SOL    HW116769   4.233   8.524   1.055
 2145SOL    HW216770   4.088   8.516   1.129
 2146SOL     OW16771   0.987   9.924   1.652
 2146SOL    HW116772   0.996   9.950   1.748
 2146SOL    HW216773   1.044   9.984   1.596
 2147SOL     OW16774   0.378   2.915   0.707
 2147SOL    HW116775   0.349   2.831   0.660
 2147SOL    HW216776   0.298   2.962   0.744
 2148SOL     OW16777   0.523   1.294   1.633
 2148SOL    HW116778   0.539   1.241   1.716
 2148SOL    HW216779   0.556   1.242   1.554
 2149SOL     OW16780   9.713   4.617   2.508
 2149SOL    HW116781   9.631   4.672   2.496
 2149SOL    HW216782   9.715   4.544   2.440
 2150SOL     OW16783   9.695   4.958   0.122
 2150SOL    HW116784   9.748   4.891   0.174
 2150SOL    HW216785   9.606   4.919   0.098
 2151SOL     OW16786   8.930   0.544   0.454
 2151SOL    HW116787   8.890   0.460   0.490
 2151SOL    HW216788   8.972   0.525   0.365
 2152SOL     OW16789   1.605   3.754   2.439
 2152SOL    HW116790   1.532   3.756   2.371
 2152SOL    HW216791   1.579   3.692   2.513
 2153SOL     OW16792   4.313   6.998   1.987
 2153SOL    HW116793   4.279   6.904   1.987
 2153SOL    HW216794   4.274   7.047   1.909
 2154SOL     OW16795   9.036   8.027   3.135
 2154SOL    HW116796   9.123   8.060   3.172
 2154SOL    HW216797   9.029   8.052   3.039
 2155SOL     OW16798   2.494   5.371   1.824
 2155SOL    HW116799   2.503   5.291   1.883
 2155SOL    HW216800   2.537   5.352   1.736
 2156SOL     OW16801   8.520   5.064   0.548
 2156SOL    HW116802   8.577   5.050   0.467
 2156SOL    HW216803   8.577   5.090   0.625
 2157SOL     OW16804   8.768   9.690   0.370
 2157SOL    HW116805   8.682   9.728   0.337
 2157SOL    HW216806   8.753   9.598   0.406
 2158SOL     OW16807   8.519   0.141   0.548
 2158SOL    HW116808   8.566   0.106   0.629
 2158SOL    HW216809   8.429   0.175   0.573
 2159SOL     OW16810   8.536   8.817   0.749
 2159SOL    HW116811   8.565   8.908   0.721
 2159SOL    HW216812   8.522   8.760   0.668
 2160SOL     OW16813   1.925   5.191   0.842
 2160SOL    HW116814   1.980   5.109   0.850
 2160SOL    HW216815   1.980   5.271   0.865
 2161SOL     OW16816   1.786   7.537   1.474
 2161SOL    HW116817   1.805   7.607   1.543
 2161SOL    HW216818   1.688   7.523   1.467
 2162SOL     OW16819   3.511   9.429   0.071
 2162SOL    HW116820   3.581   9.486   0.114
 2162SOL    HW216821   3.434   9.486   0.043
 2163SOL     OW16822   4.543   9.815   2.832
 2163SOL    HW116823   4.569   9.857   2.745
 2163SOL    HW216824   4.565   9.878   2.907
 2164SOL     OW16825   3.541   3.028   0.607
 2164SOL    HW116826   3.612   3.097   0.621
 2164SOL    HW216827   3.577   2.954   0.550
 2165SOL     OW16828   1.206   6.229   1.840
 2165SOL    HW116829   1.206   6.146   1.785
 2165SOL    HW216830   1.267   6.218   1.918
 2166SOL     OW16831   4.111   5.406   2.163
 2166SOL    HW116832   4.145   5.494   2.196
 2166SOL    HW216833   4.042   5.372   2.226
 2167SOL     OW16834   9.206   7.969   0.583
 2167SOL    HW116835   9.115   7.977   0.542
 2167SOL    HW216836   9.223   7.874   0.609
 2168SOL     OW16837   1.211   4.196   2.499
 2168SOL    HW116838   1.156   4.260   2.446
 2168SOL    HW216839   1.272   4.247   2.561
 2169SOL     OW16840   0.181   1.860   3.006
 2169SOL    HW116841   0.137   1.933   2.954
 2169SOL    HW216842   0.158   1.772   2.965
 2170SOL     OW16843   7.859   3.380   0.911
 2170SOL    HW116844   7.791   3.334   0.969
 2170SOL    HW216845   7.931   3.315   0.887
 2171SOL     OW16846   5.432   9.995   2.867
 2171SOL    HW116847   5.447   0.048   2.950
 2171SOL    HW216848   5.513   0.001   2.808
 2172SOL     OW16849   0.159   0.519   2.195
 2172SOL    HW116850   0.135   0.424   2.178
 2172SOL    HW216851   0.115   0.550   2.279
 2173SOL     OW16852   0.350   7.477   0.068
 2173SOL    HW116853   0.364   7.576   0.070
 2173SOL    HW216854   0.263   7.455   0.112
 2174SOL     OW16855   1.160   6.809   2.601
 2174SOL    HW116856   1.223   6.803   2.523
 2174SOL    HW216857   1.121   6.718   2.619
 2175SOL     OW16858   2.883   5.070   1.147
 2175SOL    HW116859   2.842   5.133   1.213
 2175SOL    HW216860   2.978   5.095   1.130
 2176SOL     OW16861   9.622   5.641   1.255
 2176SOL    HW116862   9.601   5.580   1.331
 2176SOL    HW216863   9.673   5.591   1.185
 2177SOL     OW16864   1.015   3.834   2.922
 2177SOL    HW116865   1.092   3.841   2.858
 2177SOL    HW216866   0.939   3.786   2.877
 2178SOL     OW16867   7.988   0.034   0.034
 2178SOL    HW116868   7.891   0.017   0.016
 2178SOL    HW216869   8.031   9.949   0.064
 2179SOL     OW16870   2.079   1.789   0.484
 2179SOL    HW116871   2.050   1.855   0.415
 2179SOL    HW216872   2.174   1.761   0.467
 2180SOL     OW16873   3.431   7.148   1.440
 2180SOL    HW116874   3.380   7.068   1.407
 2180SOL    HW216875   3.369   7.227   1.444
 2181SOL     OW16876   3.324   0.629   3.038
 2181SOL    HW116877   3.402   0.582   3.078
 2181SOL    HW216878   3.342   0.649   2.942
 2182SOL     OW16879   1.232   2.390   1.647
 2182SOL    HW116880   1.263   2.297   1.627
 2182SOL    HW216881   1.132   2.393   1.641
 2183SOL     OW16882   3.801   8.294   2.738
 2183SOL    HW116883   3.726   8.350   2.774
 2183SOL    HW216884   3.764   8.220   2.683
 2184SOL     OW16885   7.713   3.510   0.715
 2184SOL    HW116886   7.618   3.487   0.737
 2184SOL    HW216887   7.775   3.456   0.772
 2185SOL     OW16888   2.414   7.881   0.210
 2185SOL    HW116889   2.402   7.815   0.284
 2185SOL    HW216890   2.492   7.941   0.231
 2186SOL     OW16891   1.714   7.617   0.725
 2186SOL    HW116892   1.768   7.701   0.729
 2186SOL    HW216893   1.772   7.541   0.697
 2187SOL     OW16894   0.725   3.408   0.666
 2187SOL    HW116895   0.658   3.403   0.740
 2187SOL    HW216896   0.699   3.344   0.593
 2188SOL     OW16897   2.002   5.153   0.466
 2188SOL    HW116898   2.081   5.095   0.487
 2188SOL    HW216899   2.025   5.248   0.483
 2189SOL     OW16900   1.370   4.686   1.604
 2189SOL    HW116901   1.317   4.647   1.679
 2189SOL    HW216902   1.365   4.626   1.524
 2190SOL     OW16903   1.331   4.086   1.906
 2190SOL    HW116904   1.292   3.994   1.912
 2190SOL    HW216905   1.280   4.147   1.966
 2191SOL     OW16906   8.266   4.505   0.613
 2191SOL    HW116907   8.219   4.566   0.548
 2191SOL    HW216908   8.220   4.416   0.614
 2192SOL     OW16909   0.098   5.754   0.603
 2192SOL    HW116910   0.064   5.839   0.563
 2192SOL    HW216911   0.038   5.678   0.575
 2193SOL     OW16912   9.325   7.952   1.871
 2193SOL    HW116913   9.365   7.972   1.782
 2193SOL    HW216914   9.305   7.854   1.878
 2194SOL     OW16915   3.891   2.067   1.068
 2194SOL    HW116916   3.855   1.984   1.109
 2194SOL    HW216917   3.983   2.050   1.032
 2195SOL     OW16918   7.605   0.744   0.547
 2195SOL    HW116919   7.605   0.844   0.557
 2195SOL    HW216920   7.624   0.720   0.452
 2196SOL     OW16921   2.148   8.889   0.935
 2196SOL    HW116922   2.158   8.864   0.839
 2196SOL    HW216923   2.229   8.941   0.965
 2197SOL     OW16924   3.018   5.404   0.442
 2197SOL    HW116925   2.956   5.363   0.509
 2197SOL    HW216926   3.081   5.466   0.488
 2198SOL     OW16927   9.546   1.884   2.168
 2198SOL    HW116928   9.602   1.820   2.115
 2198SOL    HW216929   9.451   1.852   2.169
 2199SOL     OW16930   4.202   4.334   2.601
 2199SOL    HW116931   4.137   4.402   2.636
 2199SOL    HW216932   4.162   4.243   2.609
 2200SOL     OW16933   8.724   0.849   0.930
 2200SOL    HW116934   8.674   0.925   0.889
 2200SOL    HW216935   8.712   0.767   0.874
 2201SOL     OW16936   3.250   4.668   0.519
 2201SOL    HW116937   3.155   4.694   0.502
 2201SOL    HW216938   3.297   4.742   0.568
 2202SOL     OW16939   4.297   7.544   2.047
 2202SOL    HW116940   4.295   7.485   2.127
 2202SOL    HW216941   4.241   7.625   2.064
 2203SOL     OW16942   0.546   9.763   1.091
 2203SOL    HW116943   0.468   9.701   1.100
 2203SOL    HW216944   0.526   9.848   1.140
 2204SOL     OW16945   2.130   9.523   0.326
 2204SOL    HW116946   2.088   9.581   0.256
 2204SOL    HW216947   2.074   9.524   0.409
 2205SOL     OW16948   4.683   8.469   0.238
 2205SOL    HW116949   4.714   8.462   0.333
 2205SOL    HW216950   4.699   8.561   0.204
 2206SOL     OW16951   5.405   8.367   1.895
 2206SOL    HW116952   5.381   8.334   1.987
 2206SOL    HW216953   5.332   8.343   1.831
 2207SOL     OW16954   8.641   5.484   2.655
 2207SOL    HW116955   8.626   5.565   2.713
 2207SOL    HW216956   8.710   5.504   2.587
 2208SOL     OW16957   2.832   7.694   2.565
 2208SOL    HW116958   2.881   7.641   2.634
 2208SOL    HW216959   2.893   7.763   2.526
 2209SOL     OW16960   9.511   7.714   1.604
 2209SOL    HW116961   9.499   7.633   1.662
 2209SOL    HW216962   9.598   7.707   1.555
 2210SOL     OW16963   9.411   5.743   2.366
 2210SOL    HW116964   9.366   5.656   2.387
 2210SOL    HW216965   9.392   5.767   2.271
 2211SOL     OW16966   9.303   9.250   1.418
 2211SOL    HW116967   9.307   9.275   1.515
 2211SOL    HW216968   9.209   9.259   1.385
 2212SOL     OW16969   9.998   6.739   0.975
 2212SOL    HW116970   9.984   6.640   0.977
 2212SOL    HW216971   0.043   6.765   0.889
 2213SOL     OW16972   9.755   0.013   0.776
 2213SOL    HW116973   9.850   9.989   0.797
 2213SOL    HW216974   9.693   9.945   0.816
 2214SOL     OW16975   8.742   7.867   1.521
 2214SOL    HW116976   8.665   7.805   1.508
 2214SOL    HW216977   8.712   7.947   1.573
 2215SOL     OW16978   0.604   1.129   1.422
 2215SOL    HW116979   0.691   1.085   1.399
 2215SOL    HW216980   0.584   1.200   1.354
 2216SOL     OW16981   7.341   8.730   2.722
 2216SOL    HW116982   7.431   8.711   2.760
 2216SOL    HW216983   7.322   8.828   2.728
 2217SOL     OW16984   2.280   9.094   2.944
 2217SOL    HW116985   2.275   9.185   2.904
 2217SOL    HW216986   2.213   9.034   2.901
 2218SOL     OW16987   1.259   7.984   2.710
 2218SOL    HW116988   1.194   7.911   2.730
 2218SOL    HW216989   1.335   7.980   2.775
 2219SOL     OW16990   7.991   6.339   2.388
 2219SOL    HW116991   8.011   6.424   2.339
 2219SOL    HW216992   7.894   6.337   2.413
 2220SOL     OW16993   8.089   9.579   1.323
 2220SOL    HW116994   8.068   9.676   1.331
 2220SOL    HW216995   8.004   9.526   1.332
 2221SOL     OW16996   7.925   0.967   2.594
 2221SOL    HW116997   7.945   0.870   2.601
 2221SOL    HW216998   7.977   1.018   2.663
 2222SOL     OW16999   2.789   9.677   0.584
 2222SOL    HW117000   2.741   9.739   0.522
 2222SOL    HW217001   2.845   9.730   0.648
 2223SOL     OW17002   1.589   5.670   1.309
 2223SOL    HW117003   1.610   5.573   1.295
 2223SOL    HW217004   1.534   5.680   1.392
 2224SOL     OW17005   1.986   9.033   2.018
 2224SOL    HW117006   1.950   9.092   1.945
 2224SOL    HW217007   1.985   9.083   2.105
 2225SOL     OW17008   4.077   3.696   0.957
 2225SOL    HW117009   3.988   3.652   0.965
 2225SOL    HW217010   4.093   3.754   1.037
 2226SOL     OW17011   0.568   7.661   1.036
 2226SOL    HW117012   0.475   7.679   1.065
 2226SOL    HW217013   0.571   7.575   0.984
 2227SOL     OW17014   3.024   1.163   2.401
 2227SOL    HW117015   2.969   1.083   2.426
 2227SOL    HW217016   2.963   1.242   2.388
 2228SOL     OW17017   3.350   6.523   2.468
 2228SOL    HW117018   3.304   6.609   2.491
 2228SOL    HW217019   3.284   6.458   2.431
 2229SOL     OW17020   6.696   0.195   3.016
 2229SOL    HW117021   6.788   0.224   3.042
 2229SOL    HW217022   6.633   0.272   3.025
 2230SOL     OW17023   9.508   5.006   1.722
 2230SOL    HW117024   9.444   5.038   1.652
 2230SOL    HW217025   9.571   5.079   1.746
 2231SOL     OW17026   4.390   2.422   1.907
 2231SOL    HW117027   4.290   2.418   1.918
 2231SOL    HW217028   4.413   2.418   1.810
 2232SOL     OW17029   1.231   1.900   2.726
 2232SOL    HW117030   1.191   1.991   2.740
 2232SOL    HW217031   1.230   1.850   2.813
 2233SOL     OW17032   0.166   1.709   1.051
 2233SOL    HW117033   0.145   1.625   1.100
 2233SOL    HW217034   0.185   1.688   0.955
 2234SOL     OW17035   9.595   7.321   2.684
 2234SOL    HW117036   9.616   7.224   2.668
 2234SOL    HW217037   9.526   7.351   2.618
 2235SOL     OW17038   0.383   4.191   0.955
 2235SOL    HW117039   0.438   4.267   0.989
 2235SOL    HW217040   0.441   4.127   0.906
 2236SOL     OW17041   4.530   8.269   1.654
 2236SOL    HW117042   4.599   8.315   1.599
 2236SOL    HW217043   4.457   8.333   1.677
 2237SOL     OW17044   3.706   2.463   0.110
 2237SOL    HW117045   3.636   2.503   0.051
 2237SOL    HW217046   3.747   2.535   0.166
 2238SOL     OW17047   9.938   0.280   1.234
 2238SOL    HW117048   9.938   0.333   1.149
 2238SOL    HW217049   9.927   0.183   1.212
 2239SOL     OW17050   4.435   3.075   1.294
 2239SOL    HW117051   4.366   3.070   1.367
 2239SOL    HW217052   4.505   3.006   1.308
 2240SOL     OW17053   9.586   3.195   1.542
 2240SOL    HW117054   9.545   3.137   1.612
 2240SOL    HW217055   9.520   3.212   1.469
 2241SOL     OW17056   3.226   0.397   1.744
 2241SOL    HW117057   3.141   0.369   1.788
 2241SOL    HW217058   3.220   0.493   1.718
 2242SOL     OW17059   9.629   8.267   2.560
 2242SOL    HW117060   9.603   8.200   2.490
 2242SOL    HW217061   9.612   8.228   2.651
 2243SOL     OW17062   2.954   8.843   0.263
 2243SOL    HW117063   3.011   8.877   0.188
 2243SOL    HW217064   2.953   8.743   0.261
 2244SOL     OW17065   3.380   4.895   0.616
 2244SOL    HW117066   3.322   4.975   0.601
 2244SOL    HW217067   3.415   4.896   0.710
 2245SOL     OW17068   8.707   2.063   2.267
 2245SOL    HW117069   8.629   2.098   2.216
 2245SOL    HW217070   8.688   1.970   2.299
 2246SOL     OW17071   7.349   1.342   0.270
 2246SOL    HW117072   7.437   1.341   0.317
 2246SOL    HW217073   7.357   1.291   0.184
 2247SOL     OW17074   4.152   4.167   0.378
 2247SOL    HW117075   4.242   4.160   0.421
 2247SOL    HW217076   4.136   4.261   0.351
 2248SOL     OW17077   4.294   0.195   0.505
 2248SOL    HW117078   4.209   0.143   0.503
 2248SOL    HW217079   4.367   0.141   0.464
 2249SOL     OW17080   3.325   8.816   0.223
 2249SOL    HW117081   3.321   8.802   0.322
 2249SOL    HW217082   3.248   8.873   0.194
 2250SOL     OW17083   8.315   1.131   2.356
 2250SOL    HW117084   8.376   1.054   2.378
 2250SOL    HW217085   8.358   1.188   2.286
 2251SOL     OW17086   4.214   0.281   0.072
 2251SOL    HW117087   4.193   0.287   4.015
 2251SOL    HW217088   4.188   0.366   0.117
 2252SOL     OW17089   0.539   4.914   1.976
 2252SOL    HW117090   0.536   4.974   1.896
 2252SOL    HW217091   0.447   4.883   1.998
 2253SOL     OW17092   8.930   2.954   1.031
 2253SOL    HW117093   8.843   2.908   1.048
 2253SOL    HW217094   8.922   3.051   1.051
 2254SOL     OW17095   4.434   0.900   2.429
 2254SOL    HW117096   4.338   0.881   2.408
 2254SOL    HW217097   4.490   0.821   2.403
 2255SOL     OW17098   7.800   0.412   2.084
 2255SOL    HW117099   7.728   0.364   2.034
 2255SOL    HW217100   7.805   0.507   2.053
 2256SOL     OW17101   2.115   7.535   1.082
 2256SOL    HW117102   2.085   7.617   1.131
 2256SOL    HW217103   2.174   7.562   1.006
 2257SOL     OW17104   9.414   6.467   2.649
 2257SOL    HW117105   9.358   6.406   2.705
 2257SOL    HW217106   9.355   6.532   2.601
 2258SOL     OW17107   4.464   9.091   1.827
 2258SOL    HW117108   4.420   9.180   1.811
 2258SOL    HW217109   4.530   9.100   1.902
 2259SOL     OW17110   7.614   9.608   2.256
 2259SOL    HW117111   7.664   9.530   2.217
 2259SOL    HW217112   7.606   9.595   2.355
 2260SOL     OW17113   0.714   4.718   2.034
 2260SOL    HW117114   0.657   4.799   2.019
 2260SOL    HW217115   0.765   4.697   1.950
 2261SOL     OW17116   9.801   5.210   2.955
 2261SOL    HW117117   9.768   5.215   2.861
 2261SOL    HW217118   9.739   5.261   3.015
 2262SOL     OW17119   4.468   3.443   3.089
 2262SOL    HW117120   4.379   3.439   3.043
 2262SOL    HW217121   4.488   3.538   3.113
 2263SOL     OW17122   7.738   1.225   1.872
 2263SOL    HW117123   7.731   1.204   1.969
 2263SOL    HW217124   7.772   1.145   1.822
 2264SOL     OW17125   1.019   3.877   1.651
 2264SOL    HW117126   0.932   3.852   1.610
 2264SOL    HW217127   1.059   3.798   1.697
 2265SOL     OW17128   3.234   6.940   1.411
 2265SOL    HW117129   3.202   6.871   1.346
 2265SOL    HW217130   3.178   7.022   1.402
 2266SOL     OW17131   8.863   8.456   1.753
 2266SOL    HW117132   8.946   8.482   1.803
 2266SOL    HW217133   8.888   8.419   1.663
 2267SOL     OW17134   5.048   8.681   2.191
 2267SOL    HW117135   5.014   8.678   2.285
 2267SOL    HW217136   5.100   8.766   2.178
 2268SOL     OW17137   8.964   7.967   0.456
 2268SOL    HW117138   8.946   7.888   0.398
 2268SOL    HW217139   8.936   8.051   0.409
 2269SOL     OW17140   0.123   2.662   2.994
 2269SOL    HW117141   0.069   2.579   2.986
 2269SOL    HW217142   0.197   2.661   2.927
 2270SOL     OW17143   8.617   8.199   0.827
 2270SOL    HW117144   8.697   8.243   0.787
 2270SOL    HW217145   8.640   8.162   0.917
 2271SOL     OW17146   6.522   8.302   2.225
 2271SOL    HW117147   6.608   8.252   2.242
 2271SOL    HW217148   6.508   8.369   2.298
 2272SOL     OW17149   3.199   7.172   0.392
 2272SOL    HW117150   3.242   7.252   0.434
 2272SOL    HW217151   3.183   7.103   0.462
 2273SOL     OW17152   8.037   7.149   3.049
 2273SOL    HW117153   8.115   7.087   3.044
 2273SOL    HW217154   8.068   7.238   3.082
 2274SOL     OW17155   9.320   7.544   1.345
 2274SOL    HW117156   9.318   7.461   1.402
 2274SOL    HW217157   9.413   7.563   1.316
 2275SOL     OW17158   9.302   5.001   0.953
 2275SOL    HW117159   9.208   5.030   0.932
 2275SOL    HW217160   9.300   4.916   1.004
 2276SOL     OW17161   4.038   1.454   1.636
 2276SOL    HW117162   4.058   1.395   1.558
 2276SOL    HW217163   4.124   1.483   1.678
 2277SOL     OW17164   0.764   5.845   0.402
 2277SOL    HW117165   0.688   5.911   0.402
 2277SOL    HW217166   0.840   5.883   0.453
 2278SOL     OW17167   4.409   3.609   1.858
 2278SOL    HW117168   4.509   3.603   1.864
 2278SOL    HW217169   4.368   3.563   1.937
 2279SOL     OW17170   9.046   3.027   0.788
 2279SOL    HW117171   8.981   3.082   0.735
 2279SOL    HW217172   9.001   2.993   0.871
 2280SOL     OW17173   3.686   3.044   1.294
 2280SOL    HW117174   3.650   3.119   1.238
 2280SOL    HW217175   3.781   3.063   1.318
 2281SOL     OW17176   8.553   2.685   1.245
 2281SOL    HW117177   8.609   2.607   1.273
 2281SOL    HW217178   8.533   2.742   1.325
 2282SOL     OW17179   1.983   8.855   0.303
 2282SOL    HW117180   2.005   8.766   0.263
 2282SOL    HW217181   1.930   8.842   0.387
 2283SOL     OW17182   3.181   8.336   2.409
 2283SOL    HW117183   3.205   8.365   2.317
 2283SOL    HW217184   3.117   8.402   2.449
 2284SOL     OW17185   1.751   4.854   0.664
 2284SOL    HW117186   1.717   4.906   0.742
 2284SOL    HW217187   1.753   4.912   0.583
 2285SOL     OW17188   3.757   4.652   0.310
 2285SOL    HW117189   3.725   4.561   0.338
 2285SOL    HW217190   3.717   4.721   0.370
 2286SOL     OW17191   0.191   8.099   1.377
 2286SOL    HW117192   0.119   8.033   1.352
 2286SOL    HW217193   0.153   8.191   1.375
 2287SOL     OW17194   4.005   0.599   2.950
 2287SOL    HW117195   4.093   0.645   2.953
 2287SOL    HW217196   4.018   0.500   2.958
 2288SOL     OW17197   8.381   3.293   0.048
 2288SOL    HW117198   8.413   3.207   0.088
 2288SOL    HW217199   8.366   3.280   3.991
 2289SOL     OW17200   8.967   1.913   0.952
 2289SOL    HW117201   9.036   1.867   0.896
 2289SOL    HW217202   8.975   2.012   0.941
 2290SOL     OW17203   1.459   3.571   0.728
 2290SOL    HW117204   1.411   3.658   0.718
 2290SOL    HW217205   1.546   3.574   0.679
 2291SOL     OW17206   4.035   2.101   0.230
 2291SOL    HW117207   4.017   2.185   0.180
 2291SOL    HW217208   3.994   2.023   0.182
 2292SOL     OW17209   9.733   1.256   2.824
 2292SOL    HW117210   9.773   1.300   2.904
 2292SOL    HW217211   9.795   1.266   2.746
 2293SOL     OW17212   1.920   0.120   3.039
 2293SOL    HW117213   1.886   0.061   3.112
 2293SOL    HW217214   2.017   0.101   3.024
 2294SOL     OW17215   1.011   6.316   2.791
 2294SOL    HW117216   0.965   6.367   2.864
 2294SOL    HW217217   1.059   6.238   2.830
 2295SOL     OW17218   0.091   9.299   1.920
 2295SOL    HW117219   0.140   9.376   1.960
 2295SOL    HW217220   0.007   9.332   1.877
 2296SOL     OW17221   2.112   0.891   1.095
 2296SOL    HW117222   2.061   0.958   1.041
 2296SOL    HW217223   2.079   0.799   1.074
 2297SOL     OW17224   3.940   7.749   2.569
 2297SOL    HW117225   3.949   7.684   2.645
 2297SOL    HW217226   3.992   7.716   2.490
 2298SOL     OW17227   2.422   7.510   1.764
 2298SOL    HW117228   2.480   7.528   1.844
 2298SOL    HW217229   2.374   7.594   1.739
 2299SOL     OW17230   8.825   8.860   1.787
 2299SOL    HW117231   8.819   8.851   1.688
 2299SOL    HW217232   8.784   8.780   1.830
 2300SOL     OW17233   1.369   2.915   2.525
 2300SOL    HW117234   1.313   2.998   2.527
 2300SOL    HW217235   1.316   2.841   2.484
 2301SOL     OW17236   2.548   2.470   1.461
 2301SOL    HW117237   2.458   2.433   1.483
 2301SOL    HW217238   2.619   2.412   1.500
 2302SOL     OW17239   2.918   3.539   2.918
 2302SOL    HW117240   2.915   3.638   2.915
 2302SOL    HW217241   3.007   3.507   2.886
 2303SOL     OW17242   5.979   7.936   2.380
 2303SOL    HW117243   5.984   7.980   2.291
 2303SOL    HW217244   5.937   7.845   2.371
 2304SOL     OW17245   0.774   3.542   1.557
 2304SOL    HW117246   0.740   3.468   1.499
 2304SOL    HW217247   0.740   3.531   1.650
 2305SOL     OW17248   2.623   1.880   2.922
 2305SOL    HW117249   2.597   1.929   2.838
 2305SOL    HW217250   2.713   1.911   2.952
 2306SOL     OW17251   3.952   1.540   0.453
 2306SOL    HW117252   3.880   1.550   0.384
 2306SOL    HW217253   4.037   1.580   0.418
 2307SOL     OW17254   8.869   3.495   2.215
 2307SOL    HW117255   8.933   3.545   2.157
 2307SOL    HW217256   8.805   3.443   2.159
 2308SOL     OW17257   3.899   3.458   1.401
 2308SOL    HW117258   3.840   3.409   1.465
 2308SOL    HW217259   3.971   3.506   1.452
 2309SOL     OW17260   2.660   6.637   0.477
 2309SOL    HW117261   2.755   6.661   0.497
 2309SOL    HW217262   2.610   6.622   0.562
 2310SOL     OW17263   2.758   2.736   2.371
 2310SOL    HW117264   2.821   2.688   2.309
 2310SOL    HW217265   2.732   2.824   2.330
 2311SOL     OW17266   8.628   5.157   2.276
 2311SOL    HW117267   8.665   5.101   2.202
 2311SOL    HW217268   8.605   5.248   2.242
 2312SOL     OW17269   9.380   7.375   0.834
 2312SOL    HW117270   9.283   7.354   0.828
 2312SOL    HW217271   9.416   7.346   0.923
 2313SOL     OW17272   0.687   0.476   2.098
 2313SOL    HW117273   0.648   0.515   2.014
 2313SOL    HW217274   0.784   0.497   2.102
 2314SOL     OW17275   7.758   4.046   0.819
 2314SOL    HW117276   7.804   4.118   0.871
 2314SOL    HW217277   7.825   3.995   0.765
 2315SOL     OW17278   1.427   9.923   0.391
 2315SOL    HW117279   1.477   0.008   0.372
 2315SOL    HW217280   1.387   9.888   0.307
 2316SOL     OW17281   0.066   9.587   0.464
 2316SOL    HW117282   0.049   9.549   0.373
 2316SOL    HW217283   0.049   9.516   0.533
 2317SOL     OW17284   9.592   3.203   3.046
 2317SOL    HW117285   9.685   3.167   3.053
 2317SOL    HW217286   9.545   3.189   3.133
 2318SOL     OW17287   8.720   1.859   0.849
 2318SOL    HW117288   8.809   1.881   0.886
 2318SOL    HW217289   8.657   1.838   0.924
 2319SOL     OW17290   3.347   7.429   0.955
 2319SOL    HW117291   3.362   7.505   1.018
 2319SOL    HW217292   3.310   7.464   0.869
 2320SOL     OW17293   2.045   9.715   1.408
 2320SOL    HW117294   1.950   9.683   1.410
 2320SOL    HW217295   2.099   9.654   1.350
 2321SOL     OW17296   8.401   6.849   0.976
 2321SOL    HW117297   8.359   6.773   0.926
 2321SOL    HW217298   8.342   6.877   1.051
 2322SOL     OW17299   8.423   2.966   1.856
 2322SOL    HW117300   8.342   2.907   1.858
 2322SOL    HW217301   8.409   3.044   1.917
 2323SOL     OW17302   0.008   6.285   2.549
 2323SOL    HW117303   9.973   6.326   2.632
 2323SOL    HW217304   0.076   6.215   2.573
 2324SOL     OW17305   4.589   1.671   2.000
 2324SOL    HW117306   4.516   1.711   2.057
 2324SOL    HW217307   4.677   1.687   2.044
 2325SOL     OW17308   2.528   2.809   1.009
 2325SOL    HW117309   2.563   2.721   0.975
 2325SOL    HW217310   2.523   2.873   0.932
 2326SOL     OW17311   0.048   9.574   1.575
 2326SOL    HW117312   0.053   9.673   1.563
 2326SOL    HW217313   9.952   9.548   1.587
 2327SOL     OW17314   9.850   9.611   2.654
 2327SOL    HW117315   9.841   9.709   2.637
 2327SOL    HW217316   9.893   9.567   2.576
 2328SOL     OW17317   7.590   8.671   1.054
 2328SOL    HW117318   7.523   8.620   1.108
 2328SOL    HW217319   7.647   8.608   1.002
 2329SOL     OW17320   2.340   6.966   1.090
 2329SOL    HW117321   2.386   7.045   1.131
 2329SOL    HW217322   2.409   6.900   1.059
 2330SOL     OW17323   0.626   4.587   0.578
 2330SOL    HW117324   0.687   4.616   0.652
 2330SOL    HW217325   0.576   4.505   0.607
 2331SOL     OW17326   3.131   0.289   0.468
 2331SOL    HW117327   3.033   0.292   0.486
 2331SOL    HW217328   3.160   0.374   0.423
 2332SOL     OW17329   2.730   1.793   1.490
 2332SOL    HW117330   2.821   1.763   1.460
 2332SOL    HW217331   2.740   1.876   1.545
 2333SOL     OW17332   9.343   8.079   1.374
 2333SOL    HW117333   9.344   8.177   1.393
 2333SOL    HW217334   9.248   8.047   1.370
 2334SOL     OW17335   3.677   9.904   1.568
 2334SOL    HW117336   3.651   9.983   1.623
 2334SOL    HW217337   3.733   9.934   1.491
 2335SOL     OW17338   4.383   0.981   0.381
 2335SOL    HW117339   4.305   0.920   0.394
 2335SOL    HW217340   4.388   1.008   0.285
 2336SOL     OW17341   2.894   3.371   0.418
 2336SOL    HW117342   2.982   3.389   0.462
 2336SOL    HW217343   2.840   3.455   0.416
 2337SOL     OW17344   2.638   6.392   2.986
 2337SOL    HW117345   2.543   6.374   3.012
 2337SOL    HW217346   2.693   6.311   3.007
 2338SOL     OW17347   7.540   0.223   1.157
 2338SOL    HW117348   7.523   0.305   1.102
 2338SOL    HW217349   7.633   0.189   1.139
 2339SOL     OW17350   0.365   2.684   0.328
 2339SOL    HW117351   0.430   2.759   0.314
 2339SOL    HW217352   0.330   2.688   0.422
 2340SOL     OW17353   2.860   2.195   0.771
 2340SOL    HW117354   2.926   2.168   0.702
 2340SOL    HW217355   2.768   2.197   0.731
 2341SOL     OW17356   1.114   4.439   2.849
 2341SOL    HW117357   1.182   4.423   2.920
 2341SOL    HW217358   1.052   4.361   2.843
 2342SOL     OW17359   3.172   4.480   1.879
 2342SOL    HW117360   3.227   4.563   1.886
 2342SOL    HW217361   3.232   4.400   1.887
 2343SOL     OW17362   4.670   0.377   2.109
 2343SOL    HW117363   4.660   0.294   2.054
 2343SOL    HW217364   4.635   0.455   2.058
 2344SOL     OW17365   8.352   3.582   0.793
 2344SOL    HW117366   8.416   3.505   0.801
 2344SOL    HW217367   8.260   3.551   0.820
 2345SOL     OW17368   3.180   8.883   0.949
 2345SOL    HW117369   3.150   8.978   0.959
 2345SOL    HW217370   3.163   8.852   0.855
 2346SOL     OW17371   4.854   0.482   2.894
 2346SOL    HW117372   4.757   0.485   2.917
 2346SOL    HW217373   4.870   0.409   2.827
 2347SOL     OW17374   9.609   0.962   1.821
 2347SOL    HW117375   9.699   0.917   1.823
 2347SOL    HW217376   9.621   1.061   1.825
 2348SOL     OW17377   0.671   1.276   2.894
 2348SOL    HW117378   0.668   1.375   2.908
 2348SOL    HW217379   0.606   1.250   2.822
 2349SOL     OW17380   1.446   7.289   1.943
 2349SOL    HW117381   1.508   7.217   1.973
 2349SOL    HW217382   1.472   7.320   1.852
 2350SOL     OW17383   9.386   4.976   1.310
 2350SOL    HW117384   9.425   4.884   1.305
 2350SOL    HW217385   9.430   5.035   1.243
 2351SOL     OW17386   3.860   5.186   1.908
 2351SOL    HW117387   3.893   5.277   1.931
 2351SOL    HW217388   3.801   5.192   1.827
 2352SOL     OW17389   1.718   2.891   0.082
 2352SOL    HW117390   1.780   2.910   0.158
 2352SOL    HW217391   1.689   2.978   0.041
 2353SOL     OW17392   9.654   7.047   0.753
 2353SOL    HW117393   9.604   7.003   0.828
 2353SOL    HW217394   9.677   6.980   0.683
 2354SOL     OW17395   8.395   6.250   0.240
 2354SOL    HW117396   8.390   6.329   0.302
 2354SOL    HW217397   8.485   6.248   0.197
 2355SOL     OW17398   2.231   7.316   1.790
 2355SOL    HW117399   2.245   7.238   1.728
 2355SOL    HW217400   2.306   7.381   1.777
 2356SOL     OW17401   3.984   4.104   1.391
 2356SOL    HW117402   4.076   4.116   1.427
 2356SOL    HW217403   3.987   4.101   1.291
 2357SOL     OW17404   1.001   2.742   1.755
 2357SOL    HW117405   1.093   2.704   1.765
 2357SOL    HW217406   0.974   2.739   1.658
 2358SOL     OW17407   4.195   8.365   0.128
 2358SOL    HW117408   4.167   8.354   0.032
 2358SOL    HW217409   4.142   8.440   0.169
 2359SOL     OW17410   7.190   0.661   2.990
 2359SOL    HW117411   7.175   0.678   3.088
 2359SOL    HW217412   7.110   0.692   2.938
 2360SOL     OW17413   1.483   1.622   1.078
 2360SOL    HW117414   1.407   1.680   1.051
 2360SOL    HW217415   1.569   1.663   1.049
 2361SOL     OW17416   1.633   1.296   0.176
 2361SOL    HW117417   1.601   1.389   0.193
 2361SOL    HW217418   1.603   1.236   0.251
 2362SOL     OW17419   7.202   9.459   2.403
 2362SOL    HW117420   7.154   9.542   2.432
 2362SOL    HW217421   7.250   9.476   2.317
 2363SOL     OW17422   3.840   1.616   1.540
 2363SOL    HW117423   3.914   1.565   1.583
 2363SOL    HW217424   3.829   1.585   1.446
 2364SOL     OW17425   3.486   0.778   1.374
 2364SOL    HW117426   3.586   0.773   1.374
 2364SOL    HW217427   3.448   0.692   1.406
 2365SOL     OW17428   8.518   4.311   0.688
 2365SOL    HW117429   8.589   4.283   0.753
 2365SOL    HW217430   8.437   4.254   0.700
 2366SOL     OW17431   9.762   5.208   1.526
 2366SOL    HW117432   9.714   5.227   1.612
 2366SOL    HW217433   9.814   5.124   1.534
 2367SOL     OW17434   4.291   1.826   0.567
 2367SOL    HW117435   4.388   1.848   0.581
 2367SOL    HW217436   4.250   1.799   0.654
 2368SOL     OW17437   1.237   3.624   1.438
 2368SOL    HW117438   1.294   3.545   1.415
 2368SOL    HW217439   1.283   3.680   1.506
 2369SOL     OW17440   9.554   6.265   0.658
 2369SOL    HW117441   9.582   6.359   0.677
 2369SOL    HW217442   9.481   6.266   0.590
 2370SOL     OW17443   7.715   1.913   2.481
 2370SOL    HW117444   7.720   1.897   2.382
 2370SOL    HW217445   7.806   1.903   2.520
 2371SOL     OW17446   8.859   8.679   0.565
 2371SOL    HW117447   8.794   8.605   0.549
 2371SOL    HW217448   8.852   8.710   0.660
 2372SOL     OW17449   9.456   0.656   1.779
 2372SOL    HW117450   9.556   0.646   1.786
 2372SOL    HW217451   9.423   0.714   1.854
 2373SOL     OW17452   3.124   3.757   1.227
 2373SOL    HW117453   3.086   3.710   1.147
 2373SOL    HW217454   3.071   3.731   1.308
 2374SOL     OW17455   8.342   7.866   2.746
 2374SOL    HW117456   8.341   7.766   2.755
 2374SOL    HW217457   8.411   7.893   2.679
 2375SOL     OW17458   4.189   9.029   0.316
 2375SOL    HW117459   4.150   9.113   0.279
 2375SOL    HW217460   4.115   8.973   0.354
 2376SOL     OW17461   0.825   5.854   0.742
 2376SOL    HW117462   0.734   5.823   0.714
 2376SOL    HW217463   0.885   5.775   0.755
 2377SOL     OW17464   2.190   6.835   1.549
 2377SOL    HW117465   2.128   6.757   1.558
 2377SOL    HW217466   2.186   6.870   1.455
 2378SOL     OW17467   3.206   7.186   1.000
 2378SOL    HW117468   3.247   7.277   0.990
 2378SOL    HW217469   3.269   7.117   0.965
 2379SOL     OW17470   2.186   1.113   2.285
 2379SOL    HW117471   2.110   1.065   2.241
 2379SOL    HW217472   2.263   1.120   2.222
 2380SOL     OW17473   7.533   9.715   0.782
 2380SOL    HW117474   7.497   9.798   0.739
 2380SOL    HW217475   7.568   9.654   0.712
 2381SOL     OW17476   8.792   8.874   1.234
 2381SOL    HW117477   8.766   8.779   1.215
 2381SOL    HW217478   8.818   8.882   1.330
 2382SOL     OW17479   2.294   0.373   2.116
 2382SOL    HW117480   2.387   0.410   2.118
 2382SOL    HW217481   2.262   0.368   2.021
 2383SOL     OW17482   2.245   0.635   0.447
 2383SOL    HW117483   2.335   0.615   0.485
 2383SOL    HW217484   2.237   0.733   0.432
 2384SOL     OW17485   9.320   4.577   2.654
 2384SOL    HW117486   9.228   4.618   2.658
 2384SOL    HW217487   9.378   4.630   2.592
 2385SOL     OW17488   9.566   6.628   1.146
 2385SOL    HW117489   9.487   6.596   1.093
 2385SOL    HW217490   9.554   6.724   1.169
 2386SOL     OW17491   1.099   7.869   2.386
 2386SOL    HW117492   1.024   7.835   2.442
 2386SOL    HW217493   1.186   7.835   2.421
 2387SOL     OW17494   7.917   8.325   0.183
 2387SOL    HW117495   7.834   8.372   0.215
 2387SOL    HW217496   7.931   8.343   0.086
 2388SOL     OW17497   1.886   3.415   2.232
 2388SOL    HW117498   1.862   3.510   2.255
 2388SOL    HW217499   1.895   3.362   2.316
 2389SOL     OW17500   2.947   3.596   0.738
 2389SOL    HW117501   2.980   3.595   0.833
 2389SOL    HW217502   2.922   3.690   0.713
 2390SOL     OW17503   4.280   5.212   2.072
 2390SOL    HW117504   4.225   5.291   2.098
 2390SOL    HW217505   4.343   5.238   2.000
 2391SOL     OW17506   5.031   0.142   2.142
 2391SOL    HW117507   4.959   0.132   2.211
 2391SOL    HW217508   4.998   0.200   2.067
 2392SOL     OW17509   0.299   2.376   0.627
 2392SOL    HW117510   0.225   2.357   0.563
 2392SOL    HW217511   0.265   2.368   0.721
 2393SOL     OW17512   9.320   5.520   2.767
 2393SOL    HW117513   9.296   5.438   2.713
 2393SOL    HW217514   9.278   5.513   2.857
 2394SOL     OW17515   2.619   0.535   1.840
 2394SOL    HW117516   2.599   0.507   1.934
 2394SOL    HW217517   2.664   0.625   1.841
 2395SOL     OW17518   2.699   7.908   1.344
 2395SOL    HW117519   2.782   7.877   1.391
 2395SOL    HW217520   2.684   8.005   1.363
 2396SOL     OW17521   0.627   0.697   0.534
 2396SOL    HW117522   0.531   0.694   0.564
 2396SOL    HW217523   0.652   0.609   0.494
 2397SOL     OW17524   1.550   7.687   0.462
 2397SOL    HW117525   1.531   7.602   0.511
 2397SOL    HW217526   1.648   7.701   0.456
 2398SOL     OW17527   9.670   6.060   0.791
 2398SOL    HW117528   9.770   6.066   0.793
 2398SOL    HW217529   9.633   6.133   0.734
 2399SOL     OW17530   2.016   1.877   1.945
 2399SOL    HW117531   1.952   1.809   1.909
 2399SOL    HW217532   2.102   1.831   1.970
 2400SOL     OW17533   7.766   1.911   1.626
 2400SOL    HW117534   7.856   1.949   1.606
 2400SOL    HW217535   7.702   1.985   1.648
 2401SOL     OW17536   9.695   4.613   1.462
 2401SOL    HW117537   9.622   4.619   1.392
 2401SOL    HW217538   9.730   4.520   1.465
 2402SOL     OW17539   4.581   0.161   1.547
 2402SOL    HW117540   4.670   0.206   1.544
 2402SOL    HW217541   4.593   0.062   1.546
 2403SOL     OW17542   9.265   2.975   2.964
 2403SOL    HW117543   9.320   2.935   3.038
 2403SOL    HW217544   9.323   2.990   2.884
 2404SOL     OW17545   0.975   7.286   2.617
 2404SOL    HW117546   0.882   7.257   2.638
 2404SOL    HW217547   1.037   7.208   2.626
 2405SOL     OW17548   9.099   7.556   3.168
 2405SOL    HW117549   9.167   7.534   3.098
 2405SOL    HW217550   9.142   7.556   3.258
 2406SOL     OW17551   9.686   4.038   0.421
 2406SOL    HW117552   9.616   4.023   0.352
 2406SOL    HW217553   9.769   3.988   0.396
 2407SOL     OW17554   4.385   2.496   2.573
 2407SOL    HW117555   4.311   2.430   2.557
 2407SOL    HW217556   4.350   2.574   2.624
 2408SOL     OW17557   8.365   7.595   2.758
 2408SOL    HW117558   8.452   7.546   2.753
 2408SOL    HW217559   8.307   7.568   2.681
 2409SOL     OW17560   2.857   5.873   1.011
 2409SOL    HW117561   2.876   5.788   0.963
 2409SOL    HW217562   2.941   5.927   1.017
 2410SOL     OW17563   1.143   7.478   2.177
 2410SOL    HW117564   1.242   7.465   2.168
 2410SOL    HW217565   1.121   7.492   2.274
 2411SOL     OW17566   2.192   7.111   2.290
 2411SOL    HW117567   2.130   7.171   2.340
 2411SOL    HW217568   2.223   7.037   2.350
 2412SOL     OW17569   3.795   8.317   0.583
 2412SOL    HW117570   3.827   8.233   0.626
 2412SOL    HW217571   3.873   8.372   0.554
 2413SOL     OW17572   8.496   6.593   3.105
 2413SOL    HW117573   8.558   6.517   3.086
 2413SOL    HW217574   8.405   6.557   3.127
 2414SOL     OW17575   0.889   8.667   3.062
 2414SOL    HW117576   0.973   8.618   3.038
 2414SOL    HW217577   0.829   8.605   3.113
 2415SOL     OW17578   8.718   4.607   0.781
 2415SOL    HW117579   8.704   4.675   0.853
 2415SOL    HW217580   8.782   4.537   0.811
 2416SOL     OW17581   1.108   5.688   0.399
 2416SOL    HW117582   1.132   5.592   0.386
 2416SOL    HW217583   1.038   5.714   0.332
 2417SOL     OW17584   1.753   4.407   2.953
 2417SOL    HW117585   1.722   4.315   2.973
 2417SOL    HW217586   1.833   4.404   2.893
 2418SOL     OW17587   3.590   9.905   0.634
 2418SOL    HW117588   3.623   9.999   0.625
 2418SOL    HW217589   3.665   9.846   0.664
 2419SOL     OW17590   0.699   8.929   1.287
 2419SOL    HW117591   0.629   9.001   1.288
 2419SOL    HW217592   0.773   8.954   1.349
 2420SOL     OW17593   2.267   5.492   1.732
 2420SOL    HW117594   2.353   5.449   1.761
 2420SOL    HW217595   2.191   5.452   1.783
 2421SOL     OW17596   4.438   7.070   2.950
 2421SOL    HW117597   4.349   7.080   2.994
 2421SOL    HW217598   4.506   7.041   3.018
 2422SOL     OW17599   4.021   3.848   2.728
 2422SOL    HW117600   4.030   3.844   2.827
 2422SOL    HW217601   4.088   3.787   2.686
 2423SOL     OW17602   9.618   9.937   2.501
 2423SOL    HW117603   9.706   9.917   2.546
 2423SOL    HW217604   9.549   9.873   2.535
 2424SOL     OW17605   8.469   6.933   2.468
 2424SOL    HW117606   8.466   6.907   2.372
 2424SOL    HW217607   8.400   6.882   2.518
 2425SOL     OW17608   9.013   6.420   0.284
 2425SOL    HW117609   8.932   6.449   0.336
 2425SOL    HW217610   8.988   6.350   0.218
 2426SOL     OW17611   4.422   4.045   1.393
 2426SOL    HW117612   4.478   3.989   1.455
 2426SOL    HW217613   4.336   4.069   1.438
 2427SOL     OW17614   3.768   9.465   0.459
 2427SOL    HW117615   3.805   9.523   0.531
 2427SOL    HW217616   3.816   9.377   0.458
 2428SOL     OW17617   1.638   0.582   2.505
 2428SOL    HW117618   1.734   0.569   2.480
 2428SOL    HW217619   1.607   0.505   2.561
 2429SOL     OW17620   9.253   8.558   0.572
 2429SOL    HW117621   9.275   8.600   0.484
 2429SOL    HW217622   9.184   8.488   0.559
 2430SOL     OW17623   5.825   7.770   2.197
 2430SOL    HW117624   5.727   7.792   2.193
 2430SOL    HW217625   5.877   7.845   2.156
 2431SOL     OW17626   9.496   2.443   1.918
 2431SOL    HW117627   9.444   2.410   1.839
 2431SOL    HW217628   9.594   2.434   1.900
 2432SOL     OW17629   7.972   4.890   0.489
 2432SOL    HW117630   7.982   4.980   0.446
 2432SOL    HW217631   7.986   4.899   0.588
 2433SOL     OW17632   2.231   0.703   0.807
 2433SOL    HW117633   2.144   0.751   0.796
 2433SOL    HW217634   2.214   0.605   0.821
 2434SOL     OW17635   1.030   6.877   2.156
 2434SOL    HW117636   0.959   6.939   2.187
 2434SOL    HW217637   0.988   6.792   2.124
 2435SOL     OW17638   3.316   4.716   1.919
 2435SOL    HW117639   3.412   4.740   1.906
 2435SOL    HW217640   3.290   4.732   2.014
 2436SOL     OW17641   0.489   9.035   2.587
 2436SOL    HW117642   0.475   8.959   2.651
 2436SOL    HW217643   0.472   9.003   2.494
 2437SOL     OW17644   1.348   7.826   2.504
 2437SOL    HW117645   1.444   7.835   2.480
 2437SOL    HW217646   1.323   7.897   2.570
 2438SOL     OW17647   8.390   3.555   1.206
 2438SOL    HW117648   8.318   3.498   1.169
 2438SOL    HW217649   8.415   3.626   1.140
 2439SOL     OW17650   0.719   6.937   1.512
 2439SOL    HW117651   0.711   6.905   1.606
 2439SOL    HW217652   0.689   7.032   1.506
 2440SOL     OW17653   9.814   8.700   3.042
 2440SOL    HW117654   9.816   8.607   3.004
 2440SOL    HW217655   9.908   8.730   3.061
 2441SOL     OW17656   0.777   9.789   2.176
 2441SOL    HW117657   0.678   9.781   2.186
 2441SOL    HW217658   0.821   9.769   2.264
 2442SOL     OW17659   1.826   4.869   1.026
 2442SOL    HW117660   1.916   4.858   0.983
 2442SOL    HW217661   1.767   4.923   0.965
 2443SOL     OW17662   0.635   4.408   2.892
 2443SOL    HW117663   0.540   4.436   2.877
 2443SOL    HW217664   0.638   4.312   2.920
 2444SOL     OW17665   9.870   1.376   3.025
 2444SOL    HW117666   9.873   1.472   3.051
 2444SOL    HW217667   9.963   1.338   3.025
 2445SOL     OW17668   4.251   7.681   1.347
 2445SOL    HW117669   4.254   7.581   1.341
 2445SOL    HW217670   4.303   7.712   1.426
 2446SOL     OW17671   3.211   2.242   1.407
 2446SOL    HW117672   3.183   2.319   1.349
 2446SOL    HW217673   3.131   2.186   1.428
 2447SOL     OW17674   0.920   0.350   2.488
 2447SOL    HW117675   0.976   0.366   2.570
 2447SOL    HW217676   0.831   0.314   2.515
 2448SOL     OW17677   4.212   4.135   1.539
 2448SOL    HW117678   4.274   4.207   1.572
 2448SOL    HW217679   4.156   4.103   1.614
 2449SOL     OW17680   1.415   2.980   2.793
 2449SOL    HW117681   1.421   2.944   2.699
 2449SOL    HW217682   1.319   2.979   2.822
 2450SOL     OW17683   8.975   0.296   1.339
 2450SOL    HW117684   9.029   0.362   1.392
 2450SOL    HW217685   8.933   0.230   1.401
 2451SOL     OW17686   2.665   8.230   0.871
 2451SOL    HW117687   2.659   8.286   0.954
 2451SOL    HW217688   2.656   8.288   0.791
 2452SOL     OW17689   3.726   0.027   2.511
 2452SOL    HW117690   3.633   0.059   2.496
 2452SOL    HW217691   3.788   0.070   2.445
 2453SOL     OW17692   1.098   2.906   0.713
 2453SOL    HW117693   1.096   2.811   0.743
 2453SOL    HW217694   1.005   2.943   0.716
 2454SOL     OW17695   8.809   3.801   1.291
 2454SOL    HW117696   8.755   3.776   1.372
 2454SOL    HW217697   8.771   3.884   1.250
 2455SOL     OW17698   4.944   9.361   0.589
 2455SOL    HW117699   4.920   9.451   0.553
 2455SOL    HW217700   4.886   9.292   0.547
 2456SOL     OW17701   2.280   8.129   0.161
 2456SOL    HW117702   2.321   8.185   0.234
 2456SOL    HW217703   2.315   8.035   0.168
 2457SOL     OW17704   2.467   1.008   0.956
 2457SOL    HW117705   2.431   1.100   0.937
 2457SOL    HW217706   2.502   1.005   1.049
 2458SOL     OW17707   1.764   6.522   1.236
 2458SOL    HW117708   1.718   6.460   1.172
 2458SOL    HW217709   1.696   6.574   1.287
 2459SOL     OW17710   4.533   1.996   1.962
 2459SOL    HW117711   4.490   1.929   2.023
 2459SOL    HW217712   4.528   2.087   2.004
 2460SOL     OW17713   2.467   6.975   1.848
 2460SOL    HW117714   2.447   6.885   1.811
 2460SOL    HW217715   2.427   6.983   1.940
 2461SOL     OW17716   9.442   9.995   1.249
 2461SOL    HW117717   9.404   0.007   1.341
 2461SOL    HW217718   9.395   0.056   1.185
 2462SOL     OW17719   8.011   5.060   2.857
 2462SOL    HW117720   8.055   5.034   2.771
 2462SOL    HW217721   8.001   4.979   2.915
 2463SOL     OW17722   6.803   8.470   2.995
 2463SOL    HW117723   6.848   8.385   3.024
 2463SOL    HW217724   6.727   8.490   3.057
 2464SOL     OW17725   7.350   3.064   0.509
 2464SOL    HW117726   7.370   3.140   0.447
 2464SOL    HW217727   7.321   3.099   0.598
 2465SOL     OW17728   8.617   2.310   2.760
 2465SOL    HW117729   8.644   2.350   2.847
 2465SOL    HW217730   8.553   2.371   2.713
 2466SOL     OW17731   2.767   9.344   2.119
 2466SOL    HW117732   2.694   9.358   2.052
 2466SOL    HW217733   2.855   9.361   2.076
 2467SOL     OW17734   9.522   9.672   0.627
 2467SOL    HW117735   9.469   9.732   0.568
 2467SOL    HW217736   9.614   9.662   0.591
 2468SOL     OW17737   1.217   6.521   2.350
 2468SOL    HW117738   1.257   6.608   2.379
 2468SOL    HW217739   1.259   6.446   2.402
 2469SOL     OW17740   8.303   5.206   0.433
 2469SOL    HW117741   8.366   5.141   0.476
 2469SOL    HW217742   8.347   5.296   0.428
 2470SOL     OW17743   8.607   1.073   0.815
 2470SOL    HW117744   8.637   1.167   0.830
 2470SOL    HW217745   8.623   1.048   0.720
 2471SOL     OW17746   8.243   2.206   2.558
 2471SOL    HW117747   8.146   2.204   2.534
 2471SOL    HW217748   8.295   2.239   2.479
 2472SOL     OW17749   9.288   6.415   0.210
 2472SOL    HW117750   9.191   6.433   0.230
 2472SOL    HW217751   9.341   6.424   0.294
 2473SOL     OW17752   7.779   0.386   1.002
 2473SOL    HW117753   7.680   0.393   0.990
 2473SOL    HW217754   7.809   0.450   1.073
 2474SOL     OW17755   8.961   5.520   0.802
 2474SOL    HW117756   8.890   5.504   0.871
 2474SOL    HW217757   9.005   5.433   0.780
 2475SOL     OW17758   8.220   7.710   1.972
 2475SOL    HW117759   8.159   7.690   1.895
 2475SOL    HW217760   8.273   7.628   1.993
 2476SOL     OW17761   1.201   2.580   3.014
 2476SOL    HW117762   1.149   2.509   3.060
 2476SOL    HW217763   1.169   2.670   3.044
 2477SOL     OW17764   2.616   0.895   0.510
 2477SOL    HW117765   2.552   0.889   0.586
 2477SOL    HW217766   2.565   0.903   0.424
 2478SOL     OW17767   3.312   1.921   0.478
 2478SOL    HW117768   3.307   1.822   0.471
 2478SOL    HW217769   3.408   1.950   0.482
 2479SOL     OW17770   2.022   8.236   1.197
 2479SOL    HW117771   2.034   8.182   1.113
 2479SOL    HW217772   2.105   8.288   1.215
 2480SOL     OW17773   4.858   9.067   1.204
 2480SOL    HW117774   4.893   8.988   1.253
 2480SOL    HW217775   4.794   9.117   1.262
 2481SOL     OW17776   3.680   9.554   2.110
 2481SOL    HW117777   3.688   9.512   2.019
 2481SOL    HW217778   3.740   9.507   2.173
 2482SOL     OW17779   1.192   9.660   0.729
 2482SOL    HW117780   1.264   9.683   0.794
 2482SOL    HW217781   1.125   9.600   0.774
 2483SOL     OW17782   8.940   7.769   3.077
 2483SOL    HW117783   8.990   7.692   3.117
 2483SOL    HW217784   8.972   7.855   3.117
 2484SOL     OW17785   7.580   9.027   2.783
 2484SOL    HW117786   7.626   8.950   2.738
 2484SOL    HW217787   7.481   9.016   2.775
 2485SOL     OW17788   1.187   4.681   2.525
 2485SOL    HW117789   1.106   4.628   2.550
 2485SOL    HW217790   1.162   4.777   2.513
 2486SOL     OW17791   1.158   4.304   1.502
 2486SOL    HW117792   1.223   4.283   1.575
 2486SOL    HW217793   1.119   4.219   1.466
 2487SOL     OW17794   3.818   3.354   2.168
 2487SOL    HW117795   3.773   3.296   2.236
 2487SOL    HW217796   3.813   3.450   2.197
 2488SOL     OW17797   2.897   8.820   0.552
 2488SOL    HW117798   2.843   8.893   0.595
 2488SOL    HW217799   2.899   8.834   0.453
 2489SOL     OW17800   8.466   0.691   2.910
 2489SOL    HW117801   8.428   0.773   2.867
 2489SOL    HW217802   8.400   0.617   2.904
 2490SOL     OW17803   3.692   1.496   2.766
 2490SOL    HW117804   3.765   1.469   2.829
 2490SOL    HW217805   3.694   1.596   2.755
 2491SOL     OW17806   0.202   1.184   0.393
 2491SOL    HW117807   0.171   1.279   0.401
 2491SOL    HW217808   0.302   1.182   0.401
 2492SOL     OW17809   1.878   8.139   2.257
 2492SOL    HW117810   1.814   8.069   2.224
 2492SOL    HW217811   1.962   8.094   2.289
 2493SOL     OW17812   7.370   8.718   3.136
 2493SOL    HW117813   7.351   8.668   3.221
 2493SOL    HW217814   7.468   8.724   3.122
 2494SOL     OW17815   1.737   6.484   3.017
 2494SOL    HW117816   1.780   6.430   2.945
 2494SOL    HW217817   1.732   6.429   3.101
 2495SOL     OW17818   1.848   0.528   1.235
 2495SOL    HW117819   1.921   0.572   1.183
 2495SOL    HW217820   1.846   0.430   1.214
 2496SOL     OW17821   8.950   1.222   1.340
 2496SOL    HW117822   8.921   1.280   1.416
 2496SOL    HW217823   8.870   1.176   1.300
 2497SOL     OW17824   2.447   6.352   0.222
 2497SOL    HW117825   2.499   6.300   0.154
 2497SOL    HW217826   2.349   6.341   0.204
 2498SOL     OW17827   3.317   6.923   1.679
 2498SOL    HW117828   3.284   6.918   1.585
 2498SOL    HW217829   3.395   6.985   1.684
 2499SOL     OW17830   2.958   5.181   0.872
 2499SOL    HW117831   3.027   5.172   0.944
 2499SOL    HW217832   2.872   5.213   0.912
 2500SOL     OW17833   3.839   5.090   1.344
 2500SOL    HW117834   3.902   5.148   1.396
 2500SOL    HW217835   3.776   5.148   1.292
 2501SOL     OW17836   0.494   1.698   0.323
 2501SOL    HW117837   0.472   1.614   0.373
 2501SOL    HW217838   0.583   1.689   0.279
 2502SOL     OW17839   2.318   5.184   2.779
 2502SOL    HW117840   2.406   5.153   2.814
 2502SOL    HW217841   2.327   5.208   2.682
 2503SOL     OW17842   4.119   3.381   2.356
 2503SOL    HW117843   4.203   3.416   2.398
 2503SOL    HW217844   4.089   3.443   2.284
 2504SOL     OW17845   4.035   5.437   1.699
 2504SOL    HW117846   4.129   5.403   1.704
 2504SOL    HW217847   4.003   5.459   1.791
 2505SOL     OW17848   8.333   2.345   0.750
 2505SOL    HW117849   8.237   2.336   0.776
 2505SOL    HW217850   8.345   2.431   0.699
 2506SOL     OW17851   8.020   7.681   2.764
 2506SOL    HW117852   7.981   7.669   2.673
 2506SOL    HW217853   8.076   7.764   2.766
 2507SOL     OW17854   0.224   2.244   1.626
 2507SOL    HW117855   0.195   2.225   1.720
 2507SOL    HW217856   0.264   2.162   1.586
 2508SOL     OW17857   2.845   7.465   2.029
 2508SOL    HW117858   2.858   7.406   2.108
 2508SOL    HW217859   2.846   7.410   1.946
 2509SOL     OW17860   4.160   0.519   1.074
 2509SOL    HW117861   4.225   0.523   1.149
 2509SOL    HW217862   4.179   0.438   1.017
 2510SOL     OW17863   1.165   4.022   0.267
 2510SOL    HW117864   1.108   4.097   0.233
 2510SOL    HW217865   1.261   4.051   0.268
 2511SOL     OW17866   8.086   0.385   0.760
 2511SOL    HW117867   8.059   0.311   0.821
 2511SOL    HW217868   8.137   0.454   0.812
 2512SOL     OW17869   2.681   6.662   2.152
 2512SOL    HW117870   2.591   6.706   2.154
 2512SOL    HW217871   2.695   6.616   2.065
 2513SOL     OW17872   8.547   2.334   1.201
 2513SOL    HW117873   8.564   2.237   1.187
 2513SOL    HW217874   8.628   2.377   1.241
 2514SOL     OW17875   8.807   7.477   0.608
 2514SOL    HW117876   8.888   7.503   0.556
 2514SOL    HW217877   8.815   7.381   0.636
 2515SOL     OW17878   8.096   0.727   2.079
 2515SOL    HW117879   7.997   0.719   2.067
 2515SOL    HW217880   8.128   0.812   2.037
 2516SOL     OW17881   9.019   7.805   2.153
 2516SOL    HW117882   8.984   7.739   2.085
 2516SOL    HW217883   8.982   7.896   2.132
 2517SOL     OW17884   0.939   1.013   0.714
 2517SOL    HW117885   0.910   0.918   0.702
 2517SOL    HW217886   0.979   1.024   0.805
 2518SOL     OW17887   3.062   3.655   1.701
 2518SOL    HW117888   3.065   3.556   1.688
 2518SOL    HW217889   3.057   3.676   1.799
 2519SOL     OW17890   3.032   0.006   1.041
 2519SOL    HW117891   3.040   9.937   1.114
 2519SOL    HW217892   3.117   0.058   1.035
 2520SOL     OW17893   0.119   4.612   1.970
 2520SOL    HW117894   0.025   4.629   1.939
 2520SOL    HW217895   0.173   4.574   1.894
 2521SOL     OW17896   0.306   8.314   3.073
 2521SOL    HW117897   0.239   8.386   3.053
 2521SOL    HW217898   0.266   8.225   3.054
 2522SOL     OW17899   4.772   2.546   2.028
 2522SOL    HW117900   4.791   2.454   2.062
 2522SOL    HW217901   4.758   2.543   1.929
 2523SOL     OW17902   0.969   3.357   0.391
 2523SOL    HW117903   0.924   3.268   0.401
 2523SOL    HW217904   1.052   3.358   0.447
 2524SOL     OW17905   8.332   4.107   0.754
 2524SOL    HW117906   8.355   4.089   0.850
 2524SOL    HW217907   8.348   4.024   0.700
 2525SOL     OW17908   3.431   3.046   1.671
 2525SOL    HW117909   3.340   3.025   1.706
 2525SOL    HW217910   3.435   3.025   1.573
 2526SOL     OW17911   1.343   3.319   2.200
 2526SOL    HW117912   1.311   3.238   2.151
 2526SOL    HW217913   1.396   3.290   2.280
 2527SOL     OW17914   3.245   3.325   1.274
 2527SOL    HW117915   3.150   3.315   1.304
 2527SOL    HW217916   3.297   3.372   1.346
 2528SOL     OW17917   9.463   5.659   0.868
 2528SOL    HW117918   9.539   5.716   0.898
 2528SOL    HW217919   9.394   5.654   0.940
 2529SOL     OW17920   1.422   9.020   2.078
 2529SOL    HW117921   1.374   8.934   2.060
 2529SOL    HW217922   1.513   9.000   2.114
 2530SOL     OW17923   1.553   3.695   0.292
 2530SOL    HW117924   1.590   3.612   0.335
 2530SOL    HW217925   1.529   3.762   0.362
 2531SOL     OW17926   8.676   6.276   0.159
 2531SOL    HW117927   8.772   6.251   0.146
 2531SOL    HW217928   8.663   6.372   0.137
 2532SOL     OW17929   4.059   4.172   2.226
 2532SOL    HW117930   4.006   4.211   2.151
 2532SOL    HW217931   4.002   4.107   2.277
 2533SOL     OW17932   1.836   0.053   2.287
 2533SOL    HW117933   1.934   0.034   2.282
 2533SOL    HW217934   1.789   0.002   2.215
 2534SOL     OW17935   1.616   5.991   2.361
 2534SOL    HW117936   1.572   6.080   2.348
 2534SOL    HW217937   1.714   6.000   2.345
 2535SOL     OW17938   3.706   3.155   2.856
 2535SOL    HW117939   3.660   3.100   2.786
 2535SOL    HW217940   3.641   3.179   2.928
 2536SOL     OW17941   9.951   3.625   0.769
 2536SOL    HW117942   9.985   3.718   0.783
 2536SOL    HW217943   9.887   3.602   0.842
 2537SOL     OW17944   2.897   3.868   0.694
 2537SOL    HW117945   2.966   3.910   0.753
 2537SOL    HW217946   2.815   3.925   0.694
 2538SOL     OW17947   2.461   7.021   1.427
 2538SOL    HW117948   2.400   7.049   1.501
 2538SOL    HW217949   2.454   7.087   1.352
 2539SOL     OW17950   1.212   3.018   0.494
 2539SOL    HW117951   1.168   2.968   0.568
 2539SOL    HW217952   1.204   3.116   0.510
 2540SOL     OW17953   8.683   0.818   1.198
 2540SOL    HW117954   8.736   0.747   1.244
 2540SOL    HW217955   8.703   0.817   1.100
 2541SOL     OW17956   5.351   7.506   2.844
 2541SOL    HW117957   5.275   7.490   2.781
 2541SOL    HW217958   5.412   7.427   2.842
 2542SOL     OW17959   0.200   4.018   1.059
 2542SOL    HW117960   0.107   4.051   1.042
 2542SOL    HW217961   0.266   4.083   1.021
 2543SOL     OW17962   4.836   9.392   1.549
 2543SOL    HW117963   4.802   9.303   1.520
 2543SOL    HW217964   4.764   9.440   1.599
 2544SOL     OW17965   2.240   6.377   2.805
 2544SOL    HW117966   2.293   6.365   2.888
 2544SOL    HW217967   2.286   6.443   2.745
 2545SOL     OW17968   9.598   3.492   0.145
 2545SOL    HW117969   9.647   3.461   0.227
 2545SOL    HW217970   9.518   3.433   0.130
 2546SOL     OW17971   9.857   1.935   2.451
 2546SOL    HW117972   9.865   2.026   2.409
 2546SOL    HW217973   9.921   1.872   2.407
 2547SOL     OW17974   0.858   2.367   2.113
 2547SOL    HW117975   0.852   2.457   2.158
 2547SOL    HW217976   0.931   2.314   2.155
 2548SOL     OW17977   1.427   5.491   1.905
 2548SOL    HW117978   1.479   5.559   1.854
 2548SOL    HW217979   1.411   5.524   1.998
 2549SOL     OW17980   0.033   0.582   2.433
 2549SOL    HW117981   9.953   0.537   2.394
 2549SOL    HW217982   0.004   0.648   2.503
 2550SOL     OW17983   3.479   9.382   2.427
 2550SOL    HW117984   3.476   9.376   2.527
 2550SOL    HW217985   3.480   9.289   2.389
 2551SOL     OW17986   2.147   8.225   1.846
 2551SOL    HW117987   2.110   8.318   1.844
 2551SOL    HW217988   2.071   8.160   1.852
 2552SOL     OW17989   8.124   6.369   1.610
 2552SOL    HW117990   8.081   6.322   1.687
 2552SOL    HW217991   8.054   6.414   1.555
 2553SOL     OW17992   4.205   8.143   2.517
 2553SOL    HW117993   4.116   8.157   2.474
 2553SOL    HW217994   4.274   8.129   2.446
 2554SOL     OW17995   3.450   8.883   2.055
 2554SOL    HW117996   3.535   8.881   2.107
 2554SOL    HW217997   3.409   8.973   2.063
 2555SOL     OW17998   1.974   2.426   2.911
 2555SOL    HW117999   1.907   2.494   2.941
 2555SOL    HW218000   1.965   2.343   2.965
 2556SOL     OW18001   7.224   8.940   0.123
 2556SOL    HW118002   7.291   8.873   0.092
 2556SOL    HW218003   7.146   8.892   0.165
 2557SOL     OW18004   3.730   0.995   1.066
 2557SOL    HW118005   3.785   1.008   1.148
 2557SOL    HW218006   3.633   0.996   1.090
 2558SOL     OW18007   9.132   6.873   2.211
 2558SOL    HW118008   9.204   6.833   2.269
 2558SOL    HW218009   9.052   6.894   2.267
 2559SOL     OW18010   4.909   0.118   1.554
 2559SOL    HW118011   4.887   0.108   1.457
 2559SOL    HW218012   4.901   0.029   1.599
 2560SOL     OW18013   0.317   7.199   0.690
 2560SOL    HW118014   0.383   7.143   0.641
 2560SOL    HW218015   0.240   7.141   0.718
 2561SOL     OW18016   0.733   9.057   2.924
 2561SOL    HW118017   0.775   9.022   3.008
 2561SOL    HW218018   0.799   9.112   2.874
 2562SOL     OW18019   3.886   3.978   2.320
 2562SOL    HW118020   3.861   3.932   2.235
 2562SOL    HW218021   3.807   4.029   2.355
 2563SOL     OW18022   1.276   0.441   0.657
 2563SOL    HW118023   1.283   0.381   0.577
 2563SOL    HW218024   1.367   0.467   0.688
 2564SOL     OW18025   9.889   8.871   1.564
 2564SOL    HW118026   9.827   8.793   1.561
 2564SOL    HW218027   9.948   8.871   1.483
 2565SOL     OW18028   1.810   8.906   3.153
 2565SOL    HW118029   1.883   8.848   3.117
 2565SOL    HW218030   1.763   8.858   3.227
 2566SOL     OW18031   0.878   5.331   2.843
 2566SOL    HW118032   0.957   5.364   2.893
 2566SOL    HW218033   0.872   5.231   2.852
 2567SOL     OW18034   4.869   7.982   1.647
 2567SOL    HW118035   4.783   8.008   1.690
 2567SOL    HW218036   4.869   7.883   1.629
 2568SOL     OW18037   0.108   8.619   1.958
 2568SOL    HW118038   0.075   8.686   1.892
 2568SOL    HW218039   0.176   8.662   2.019
 2569SOL     OW18040   1.567   7.061   2.299
 2569SOL    HW118041   1.575   7.080   2.201
 2569SOL    HW218042   1.528   6.970   2.312
 2570SOL     OW18043   2.304   4.137   2.940
 2570SOL    HW118044   2.367   4.084   2.883
 2570SOL    HW218045   2.357   4.203   2.994
 2571SOL     OW18046   1.933   6.571   1.880
 2571SOL    HW118047   2.017   6.517   1.878
 2571SOL    HW218048   1.892   6.567   1.971
 2572SOL     OW18049   1.485   1.443   1.287
 2572SOL    HW118050   1.406   1.475   1.341
 2572SOL    HW218051   1.499   1.505   1.210
 2573SOL     OW18052   3.402   4.660   1.475
 2573SOL    HW118053   3.486   4.616   1.443
 2573SOL    HW218054   3.341   4.591   1.514
 2574SOL     OW18055   0.523   2.926   1.142
 2574SOL    HW118056   0.429   2.891   1.138
 2574SOL    HW218057   0.585   2.859   1.100
 2575SOL     OW18058   1.437   1.399   0.921
 2575SOL    HW118059   1.428   1.477   0.982
 2575SOL    HW218060   1.530   1.393   0.887
 2576SOL     OW18061   2.455   0.860   2.046
 2576SOL    HW118062   2.524   0.804   2.091
 2576SOL    HW218063   2.365   0.837   2.081
 2577SOL     OW18064   9.700   5.249   1.260
 2577SOL    HW118065   9.698   5.246   1.360
 2577SOL    HW218066   9.609   5.225   1.225
 2578SOL     OW18067   0.599   3.431   2.304
 2578SOL    HW118068   0.552   3.420   2.391
 2578SOL    HW218069   0.587   3.524   2.270
 2579SOL     OW18070   2.766   8.275   2.176
 2579SOL    HW118071   2.755   8.272   2.275
 2579SOL    HW218072   2.856   8.311   2.153
 2580SOL     OW18073   3.393   3.737   1.291
 2580SOL    HW118074   3.301   3.736   1.254
 2580SOL    HW218075   3.459   3.723   1.217
 2581SOL     OW18076   4.666   3.288   2.651
 2581SOL    HW118077   4.605   3.344   2.595
 2581SOL    HW218078   4.635   3.289   2.746
 2582SOL     OW18079   4.453   9.369   2.380
 2582SOL    HW118080   4.385   9.295   2.390
 2582SOL    HW218081   4.538   9.342   2.426
 2583SOL     OW18082   3.487   3.686   2.618
 2583SOL    HW118083   3.450   3.718   2.706
 2583SOL    HW218084   3.585   3.707   2.614
 2584SOL     OW18085   9.678   0.575   1.338
 2584SOL    HW118086   9.737   0.565   1.418
 2584SOL    HW218087   9.642   0.485   1.312
 2585SOL     OW18088   7.582   8.678   2.836
 2585SOL    HW118089   7.601   8.682   2.934
 2585SOL    HW218090   7.651   8.732   2.787
 2586SOL     OW18091   2.130   1.129   1.941
 2586SOL    HW118092   2.071   1.090   2.012
 2586SOL    HW218093   2.086   1.209   1.901
 2587SOL     OW18094   9.247   7.192   1.944
 2587SOL    HW118095   9.156   7.151   1.950
 2587SOL    HW218096   9.309   7.145   2.007
 2588SOL     OW18097   7.750   9.841   2.142
 2588SOL    HW118098   7.751   9.845   2.042
 2588SOL    HW218099   7.717   9.751   2.171
 2589SOL     OW18100   9.740   9.113   1.577
 2589SOL    HW118101   9.772   9.178   1.508
 2589SOL    HW218102   9.795   9.030   1.573
 2590SOL     OW18103   4.077   8.992   2.389
 2590SOL    HW118104   4.083   8.949   2.299
 2590SOL    HW218105   4.000   9.055   2.391
 2591SOL     OW18106   7.407   9.411   0.554
 2591SOL    HW118107   7.319   9.425   0.599
 2591SOL    HW218108   7.440   9.319   0.574
 2592SOL     OW18109   9.523   6.904   1.229
 2592SOL    HW118110   9.466   6.986   1.231
 2592SOL    HW218111   9.603   6.917   1.288
 2593SOL     OW18112   3.903   8.176   2.344
 2593SOL    HW118113   3.947   8.174   2.254
 2593SOL    HW218114   3.871   8.084   2.367
 2594SOL     OW18115   7.815   2.837   0.640
 2594SOL    HW118116   7.718   2.860   0.631
 2594SOL    HW218117   7.870   2.914   0.608
 2595SOL     OW18118   2.455   7.028   0.428
 2595SOL    HW118119   2.462   6.967   0.506
 2595SOL    HW218120   2.540   7.026   0.375
 2596SOL     OW18121   3.439   6.911   2.587
 2596SOL    HW118122   3.533   6.909   2.621
 2596SOL    HW218123   3.383   6.971   2.644
 2597SOL     OW18124   8.256   1.412   0.410
 2597SOL    HW118125   8.354   1.399   0.420
 2597SOL    HW218126   8.220   1.344   0.346
 2598SOL     OW18127   1.414   7.430   2.176
 2598SOL    HW118128   1.422   7.383   2.088
 2598SOL    HW218129   1.504   7.462   2.205
 2599SOL     OW18130   0.203   8.965   0.968
 2599SOL    HW118131   0.222   8.879   1.016
 2599SOL    HW218132   0.259   9.038   1.007
 2600SOL     OW18133   5.893   7.528   2.306
 2600SOL    HW118134   5.871   7.614   2.260
 2600SOL    HW218135   5.987   7.531   2.339
 2601SOL     OW18136   8.415   3.296   2.255
 2601SOL    HW118137   8.510   3.265   2.249
 2601SOL    HW218138   8.369   3.248   2.329
 2602SOL     OW18139   3.384   0.543   1.466
 2602SOL    HW118140   3.441   0.467   1.436
 2602SOL    HW218141   3.289   0.525   1.441
 2603SOL     OW18142   1.443   3.345   3.015
 2603SOL    HW118143   1.428   3.353   3.114
 2603SOL    HW218144   1.489   3.258   2.995
 2604SOL     OW18145   2.649   3.844   2.339
 2604SOL    HW118146   2.740   3.867   2.371
 2604SOL    HW218147   2.647   3.846   2.239
 2605SOL     OW18148   8.132   8.123   2.164
 2605SOL    HW118149   8.162   8.121   2.069
 2605SOL    HW218150   8.054   8.185   2.174
 2606SOL     OW18151   4.655   2.934   2.822
 2606SOL    HW118152   4.686   2.839   2.813
 2606SOL    HW218153   4.685   2.971   2.909
 2607SOL     OW18154   7.768   4.276   0.629
 2607SOL    HW118155   7.721   4.221   0.698
 2607SOL    HW218156   7.830   4.218   0.577
 2608SOL     OW18157   7.755   9.759   1.344
 2608SOL    HW118158   7.657   9.777   1.351
 2608SOL    HW218159   7.771   9.660   1.349
 2609SOL     OW18160   7.171   9.270   1.987
 2609SOL    HW118161   7.136   9.176   1.989
 2609SOL    HW218162   7.260   9.273   2.033
 2610SOL     OW18163   7.738   1.566   0.478
 2610SOL    HW118164   7.669   1.638   0.469
 2610SOL    HW218165   7.826   1.600   0.444
 2611SOL     OW18166   8.074   3.551   0.491
 2611SOL    HW118167   7.993   3.602   0.520
 2611SOL    HW218168   8.080   3.467   0.544
 2612SOL     OW18169   8.463   4.971   1.188
 2612SOL    HW118170   8.474   4.977   1.088
 2612SOL    HW218171   8.448   5.063   1.224
 2613SOL     OW18172   2.127   6.603   3.057
 2613SOL    HW118173   2.183   6.642   2.984
 2613SOL    HW218174   2.088   6.678   3.111
 2614SOL     OW18175   4.840   7.825   2.065
 2614SOL    HW118176   4.923   7.878   2.053
 2614SOL    HW218177   4.822   7.770   1.984
 2615SOL     OW18178   3.406   7.676   1.922
 2615SOL    HW118179   3.464   7.601   1.955
 2615SOL    HW218180   3.458   7.733   1.859
 2616SOL     OW18181   9.270   8.864   2.185
 2616SOL    HW118182   9.263   8.950   2.134
 2616SOL    HW218183   9.302   8.791   2.125
 2617SOL     OW18184   9.093   3.787   2.420
 2617SOL    HW118185   9.163   3.722   2.451
 2617SOL    HW218186   9.111   3.812   2.324
 2618SOL     OW18187   3.452   1.726   2.272
 2618SOL    HW118188   3.424   1.664   2.198
 2618SOL    HW218189   3.541   1.765   2.250
 2619SOL     OW18190   2.884   6.289   1.960
 2619SOL    HW118191   2.883   6.257   2.055
 2619SOL    HW218192   2.840   6.221   1.902
 2620SOL     OW18193   9.114   3.514   0.409
 2620SOL    HW118194   9.199   3.565   0.415
 2620SOL    HW218195   9.107   3.470   0.320
 2621SOL     OW18196   9.691   7.105   1.643
 2621SOL    HW118197   9.756   7.112   1.719
 2621SOL    HW218198   9.598   7.112   1.678
 2622SOL     OW18199   1.979   6.133   0.710
 2622SOL    HW118200   2.038   6.213   0.701
 2622SOL    HW218201   1.907   6.137   0.640
 2623SOL     OW18202   3.914   6.984   1.041
 2623SOL    HW118203   3.844   7.036   1.092
 2623SOL    HW218204   4.002   6.995   1.086
 2624SOL     OW18205   8.261   3.818   0.041
 2624SOL    HW118206   8.269   3.723   0.072
 2624SOL    HW218207   8.352   3.860   0.038
 2625SOL     OW18208   9.727   2.526   2.846
 2625SOL    HW118209   9.692   2.439   2.883
 2625SOL    HW218210   9.693   2.602   2.902
 2626SOL     OW18211   8.874   7.235   1.463
 2626SOL    HW118212   8.928   7.271   1.539
 2626SOL    HW218213   8.888   7.290   1.382
 2627SOL     OW18214   9.607   2.438   1.020
 2627SOL    HW118215   9.522   2.385   1.028
 2627SOL    HW218216   9.591   2.531   1.054
 2628SOL     OW18217   4.336   4.629   2.342
 2628SOL    HW118218   4.309   4.533   2.334
 2628SOL    HW218219   4.269   4.687   2.297
 2629SOL     OW18220   7.625   8.485   2.639
 2629SOL    HW118221   7.610   8.545   2.718
 2629SOL    HW218222   7.601   8.534   2.556
 2630SOL     OW18223   2.587   0.596   0.774
 2630SOL    HW118224   2.686   0.591   0.783
 2630SOL    HW218225   2.547   0.632   0.859
 2631SOL     OW18226   7.610   3.199   0.661
 2631SOL    HW118227   7.631   3.132   0.733
 2631SOL    HW218228   7.575   3.283   0.702
 2632SOL     OW18229   1.148   3.776   2.370
 2632SOL    HW118230   1.179   3.681   2.376
 2632SOL    HW218231   1.143   3.816   2.461
 2633SOL     OW18232   2.615   8.164   1.367
 2633SOL    HW118233   2.636   8.261   1.360
 2633SOL    HW218234   2.517   8.150   1.357
 2634SOL     OW18235   2.742   6.548   1.105
 2634SOL    HW118236   2.813   6.551   1.175
 2634SOL    HW218237   2.715   6.453   1.090
 2635SOL     OW18238   9.520   8.941   2.300
 2635SOL    HW118239   9.567   8.880   2.364
 2635SOL    HW218240   9.434   8.899   2.271
 2636SOL     OW18241   7.777   9.214   2.422
 2636SOL    HW118242   7.863   9.164   2.415
 2636SOL    HW218243   7.757   9.234   2.518
 2637SOL     OW18244   9.662   6.114   0.303
 2637SOL    HW118245   9.737   6.056   0.274
 2637SOL    HW218246   9.597   6.061   0.357
 2638SOL     OW18247   7.910   8.581   0.580
 2638SOL    HW118248   7.866   8.670   0.563
 2638SOL    HW218249   8.000   8.595   0.620
 2639SOL     OW18250   3.367   6.862   2.082
 2639SOL    HW118251   3.387   6.887   2.177
 2639SOL    HW218252   3.408   6.930   2.020
 2640SOL     OW18253   2.280   8.785   2.712
 2640SOL    HW118254   2.281   8.884   2.703
 2640SOL    HW218255   2.302   8.743   2.624
 2641SOL     OW18256   0.155   3.955   2.444
 2641SOL    HW118257   0.111   3.898   2.513
 2641SOL    HW218258   0.091   3.972   2.369
 2642SOL     OW18259   0.708   1.578   0.578
 2642SOL    HW118260   0.700   1.528   0.664
 2642SOL    HW218261   0.700   1.676   0.595
 2643SOL     OW18262   0.036   8.844   1.331
 2643SOL    HW118263   0.008   8.900   1.254
 2643SOL    HW218264   9.996   8.753   1.322
 2644SOL     OW18265   7.896   1.183   0.940
 2644SOL    HW118266   7.858   1.274   0.923
 2644SOL    HW218267   7.861   1.148   1.027
 2645SOL     OW18268   6.854   9.753   2.624
 2645SOL    HW118269   6.814   9.676   2.674
 2645SOL    HW218270   6.783   9.819   2.602
 2646SOL     OW18271   8.253   0.027   1.434
 2646SOL    HW118272   8.204   9.965   1.495
 2646SOL    HW218273   8.194   0.103   1.408
 2647SOL     OW18274   8.895   8.050   2.125
 2647SOL    HW118275   8.836   8.022   2.201
 2647SOL    HW218276   8.839   8.065   2.043
 2648SOL     OW18277   1.313   3.571   0.221
 2648SOL    HW118278   1.240   3.636   0.197
 2648SOL    HW218279   1.400   3.621   0.228
 2649SOL     OW18280   8.760   4.630   0.220
 2649SOL    HW118281   8.814   4.714   0.232
 2649SOL    HW218282   8.670   4.643   0.260
 2650SOL     OW18283   5.091   7.944   2.024
 2650SOL    HW118284   5.132   7.858   2.052
 2650SOL    HW218285   5.113   8.015   2.092
 2651SOL     OW18286   9.769   1.323   1.002
 2651SOL    HW118287   9.847   1.266   1.027
 2651SOL    HW218288   9.705   1.327   1.078
 2652SOL     OW18289   9.374   3.326   0.189
 2652SOL    HW118290   9.397   3.328   0.287
 2652SOL    HW218291   9.382   3.233   0.155
 2653SOL     OW18292   1.301   9.840   0.156
 2653SOL    HW118293   1.303   9.929   0.110
 2653SOL    HW218294   1.206   9.808   0.163
 2654SOL     OW18295   2.918   1.638   2.470
 2654SOL    HW118296   2.849   1.710   2.472
 2654SOL    HW218297   3.004   1.674   2.436
 2655SOL     OW18298   3.165   1.398   1.721
 2655SOL    HW118299   3.251   1.431   1.760
 2655SOL    HW218300   3.100   1.473   1.715
 2656SOL     OW18301   0.032   8.333   1.661
 2656SOL    HW118302   0.109   8.336   1.725
 2656SOL    HW218303   9.954   8.382   1.701
 2657SOL     OW18304   8.259   7.670   0.126
 2657SOL    HW118305   8.302   7.637   0.210
 2657SOL    HW218306   8.264   7.598   0.056
 2658SOL     OW18307   3.864   9.172   2.397
 2658SOL    HW118308   3.802   9.154   2.321
 2658SOL    HW218309   3.811   9.190   2.480
 2659SOL     OW18310   9.081   4.718   2.668
 2659SOL    HW118311   9.113   4.794   2.612
 2659SOL    HW218312   9.038   4.753   2.751
 2660SOL     OW18313   1.841   2.492   2.255
 2660SOL    HW118314   1.845   2.592   2.254
 2660SOL    HW218315   1.921   2.455   2.208
 2661SOL     OW18316   3.909   2.332   1.569
 2661SOL    HW118317   3.840   2.392   1.609
 2661SOL    HW218318   3.879   2.302   1.479
 2662SOL     OW18319   2.207   2.220   2.617
 2662SOL    HW118320   2.243   2.141   2.668
 2662SOL    HW218321   2.276   2.293   2.616
 2663SOL     OW18322   0.666   5.165   0.698
 2663SOL    HW118323   0.594   5.234   0.703
 2663SOL    HW218324   0.753   5.209   0.673
 2664SOL     OW18325   2.461   6.866   0.652
 2664SOL    HW118326   2.494   6.920   0.729
 2664SOL    HW218327   2.488   6.770   0.663
 2665SOL     OW18328   8.826   9.015   2.015
 2665SOL    HW118329   8.830   8.968   1.927
 2665SOL    HW218330   8.890   8.972   2.079
 2666SOL     OW18331   1.150   5.033   0.293
 2666SOL    HW118332   1.107   4.997   0.211
 2666SOL    HW218333   1.213   5.106   0.268
 2667SOL     OW18334   2.039   7.520   1.808
 2667SOL    HW118335   2.102   7.443   1.803
 2667SOL    HW218336   1.945   7.487   1.809
 2668SOL     OW18337   7.614   9.819   2.847
 2668SOL    HW118338   7.666   9.810   2.932
 2668SOL    HW218339   7.576   9.730   2.822
 2669SOL     OW18340   0.912   1.671   1.805
 2669SOL    HW118341   0.949   1.703   1.718
 2669SOL    HW218342   0.864   1.584   1.792
 2670SOL     OW18343   2.603   2.746   1.478
 2670SOL    HW118344   2.694   2.764   1.515
 2670SOL    HW218345   2.591   2.647   1.466
 2671SOL     OW18346   0.004   6.578   2.184
 2671SOL    HW118347   0.057   6.560   2.268
 2671SOL    HW218348   0.066   6.582   2.106
 2672SOL     OW18349   1.592   5.643   1.714
 2672SOL    HW118350   1.675   5.698   1.712
 2672SOL    HW218351   1.524   5.681   1.651
 2673SOL     OW18352   8.862   8.265   1.058
 2673SOL    HW118353   8.917   8.337   1.100
 2673SOL    HW218354   8.915   8.218   0.987
 2674SOL     OW18355   2.168   8.203   0.496
 2674SOL    HW118356   2.202   8.194   0.590
 2674SOL    HW218357   2.241   8.238   0.437
 2675SOL     OW18358   3.716   0.908   0.636
 2675SOL    HW118359   3.621   0.923   0.660
 2675SOL    HW218360   3.749   0.984   0.579
 2676SOL     OW18361   1.129   0.110   1.503
 2676SOL    HW118362   1.092   0.203   1.502
 2676SOL    HW218363   1.220   0.111   1.543
 2677SOL     OW18364   2.846   9.665   1.285
 2677SOL    HW118365   2.858   9.608   1.204
 2677SOL    HW218366   2.829   9.607   1.365
 2678SOL     OW18367   3.451   5.546   2.699
 2678SOL    HW118368   3.398   5.589   2.625
 2678SOL    HW218369   3.388   5.513   2.770
 2679SOL     OW18370   6.168   7.074   2.942
 2679SOL    HW118371   6.254   7.039   2.979
 2679SOL    HW218372   6.113   6.999   2.907
 2680SOL     OW18373   1.512   1.523   0.275
 2680SOL    HW118374   1.531   1.616   0.304
 2680SOL    HW218375   1.440   1.484   0.333
 2681SOL     OW18376   3.707   9.501   1.819
 2681SOL    HW118377   3.629   9.486   1.758
 2681SOL    HW218378   3.743   9.593   1.805
 2682SOL     OW18379   8.601   1.281   1.859
 2682SOL    HW118380   8.666   1.331   1.918
 2682SOL    HW218381   8.512   1.326   1.863
 2683SOL     OW18382   3.386   3.273   0.882
 2683SOL    HW118383   3.333   3.331   0.942
 2683SOL    HW218384   3.333   3.251   0.800
 2684SOL     OW18385   6.799   0.409   2.694
 2684SOL    HW118386   6.704   0.414   2.661
 2684SOL    HW218387   6.836   0.318   2.676
 2685SOL     OW18388   0.443   2.675   2.459
 2685SOL    HW118389   0.468   2.578   2.460
 2685SOL    HW218390   0.488   2.722   2.534
 2686SOL     OW18391   9.800   2.828   1.563
 2686SOL    HW118392   9.882   2.777   1.537
 2686SOL    HW218393   9.818   2.926   1.555
 2687SOL     OW18394   9.691   2.176   0.688
 2687SOL    HW118395   9.611   2.181   0.628
 2687SOL    HW218396   9.669   2.121   0.769
 2688SOL     OW18397   9.974   4.033   2.238
 2688SOL    HW118398   9.993   4.131   2.237
 2688SOL    HW218399   9.990   3.995   2.147
 2689SOL     OW18400   8.290   2.922   2.619
 2689SOL    HW118401   8.356   2.911   2.694
 2689SOL    HW218402   8.215   2.857   2.632
 2690SOL     OW18403   0.286   5.983   0.976
 2690SOL    HW118404   0.245   6.058   1.028
 2690SOL    HW218405   0.214   5.924   0.941
 2691SOL     OW18406   9.541   7.464   1.742
 2691SOL    HW118407   9.568   7.407   1.820
 2691SOL    HW218408   9.585   7.430   1.659
 2692SOL     OW18409   3.814   7.589   0.732
 2692SOL    HW118410   3.792   7.511   0.792
 2692SOL    HW218411   3.897   7.633   0.764
 2693SOL     OW18412   0.405   5.203   0.436
 2693SOL    HW118413   0.308   5.209   0.461
 2693SOL    HW218414   0.425   5.112   0.399
 2694SOL     OW18415   6.466   9.059   1.699
 2694SOL    HW118416   6.416   9.011   1.628
 2694SOL    HW218417   6.563   9.061   1.677
 2695SOL     OW18418   9.739   1.972   1.279
 2695SOL    HW118419   9.816   1.916   1.249
 2695SOL    HW218420   9.734   2.056   1.225
 2696SOL     OW18421   3.591   7.690   2.751
 2696SOL    HW118422   3.583   7.789   2.760
 2696SOL    HW218423   3.662   7.656   2.813
 2697SOL     OW18424   4.673   5.375   2.613
 2697SOL    HW118425   4.588   5.322   2.609
 2697SOL    HW218426   4.722   5.366   2.527
 2698SOL     OW18427   3.410   5.265   2.084
 2698SOL    HW118428   3.360   5.219   2.158
 2698SOL    HW218429   3.368   5.354   2.066
 2699SOL     OW18430   8.521   4.250   1.082
 2699SOL    HW118431   8.600   4.272   1.139
 2699SOL    HW218432   8.462   4.331   1.074
 2700SOL     OW18433   3.475   8.552   0.437
 2700SOL    HW118434   3.489   8.494   0.518
 2700SOL    HW218435   3.412   8.626   0.459
 2701SOL     OW18436   0.748   6.375   1.943
 2701SOL    HW118437   0.694   6.382   2.027
 2701SOL    HW218438   0.697   6.414   1.867
 2702SOL     OW18439   4.477   0.783   2.104
 2702SOL    HW118440   4.470   0.883   2.112
 2702SOL    HW218441   4.387   0.742   2.120
 2703SOL     OW18442   9.735   1.730   1.611
 2703SOL    HW118443   9.749   1.795   1.685
 2703SOL    HW218444   9.637   1.715   1.598
 2704SOL     OW18445   9.152   9.904   1.026
 2704SOL    HW118446   9.233   9.933   0.975
 2704SOL    HW218447   9.103   9.984   1.060
 2705SOL     OW18448   4.071   1.926   0.441
 2705SOL    HW118449   4.088   1.994   0.370
 2705SOL    HW218450   4.158   1.902   0.485
 2706SOL     OW18451   3.496   8.264   1.869
 2706SOL    HW118452   3.475   8.240   1.964
 2706SOL    HW218453   3.537   8.185   1.824
 2707SOL     OW18454   4.155   4.814   2.247
 2707SOL    HW118455   4.139   4.912   2.235
 2707SOL    HW218456   4.083   4.774   2.303
 2708SOL     OW18457   4.193   8.111   0.264
 2708SOL    HW118458   4.120   8.051   0.233
 2708SOL    HW218459   4.193   8.195   0.209
 2709SOL     OW18460   0.163   1.637   1.582
 2709SOL    HW118461   0.202   1.545   1.584
 2709SOL    HW218462   0.084   1.637   1.521
 2710SOL     OW18463   3.156   5.068   0.322
 2710SOL    HW118464   3.183   5.088   0.416
 2710SOL    HW218465   3.224   5.104   0.258
 2711SOL     OW18466   2.931   1.476   1.360
 2711SOL    HW118467   3.012   1.421   1.377
 2711SOL    HW218468   2.952   1.572   1.373
 2712SOL     OW18469   1.224   5.844   2.787
 2712SOL    HW118470   1.216   5.769   2.852
 2712SOL    HW218471   1.189   5.815   2.698
 2713SOL     OW18472   1.249   2.599   2.749
 2713SOL    HW118473   1.245   2.591   2.848
 2713SOL    HW218474   1.345   2.599   2.719
 2714SOL     OW18475   3.043   2.139   0.581
 2714SOL    HW118476   3.114   2.109   0.645
 2714SOL    HW218477   3.068   2.112   0.488
 2715SOL     OW18478   8.872   3.173   1.478
 2715SOL    HW118479   8.831   3.108   1.414
 2715SOL    HW218480   8.904   3.253   1.427
 2716SOL     OW18481   3.915   1.127   2.662
 2716SOL    HW118482   3.948   1.100   2.752
 2716SOL    HW218483   3.938   1.222   2.644
 2717SOL     OW18484   3.363   6.596   2.127
 2717SOL    HW118485   3.379   6.692   2.104
 2717SOL    HW218486   3.268   6.585   2.160
 2718SOL     OW18487   2.486   7.869   2.346
 2718SOL    HW118488   2.484   7.969   2.345
 2718SOL    HW218489   2.533   7.837   2.428
 2719SOL     OW18490   2.100   8.387   1.536
 2719SOL    HW118491   2.160   8.308   1.533
 2719SOL    HW218492   2.131   8.455   1.469
 2720SOL     OW18493   3.714   3.382   2.614
 2720SOL    HW118494   3.617   3.387   2.640
 2720SOL    HW218495   3.740   3.466   2.567
 2721SOL     OW18496   4.274   2.174   2.169
 2721SOL    HW118497   4.366   2.180   2.131
 2721SOL    HW218498   4.247   2.262   2.207
 2722SOL     OW18499   3.480   5.105   1.874
 2722SOL    HW118500   3.400   5.053   1.843
 2722SOL    HW218501   3.453   5.162   1.952
 2723SOL     OW18502   1.216   7.149   0.155
 2723SOL    HW118503   1.268   7.076   0.111
 2723SOL    HW218504   1.202   7.127   0.251
 2724SOL     OW18505   1.249   2.137   0.747
 2724SOL    HW118506   1.275   2.188   0.665
 2724SOL    HW218507   1.267   2.194   0.828
 2725SOL     OW18508   2.447   9.885   0.693
 2725SOL    HW118509   2.439   9.914   0.597
 2725SOL    HW218510   2.532   9.921   0.731
 2726SOL     OW18511   7.217   0.014   2.921
 2726SOL    HW118512   7.299   0.033   2.868
 2726SOL    HW218513   7.141   9.994   2.859
 2727SOL     OW18514   1.104   1.107   1.354
 2727SOL    HW118515   1.122   1.058   1.439
 2727SOL    HW218516   1.189   1.144   1.317
 2728SOL     OW18517   8.797   1.381   0.408
 2728SOL    HW118518   8.816   1.345   0.316
 2728SOL    HW218519   8.874   1.436   0.439
 2729SOL     OW18520   9.184   8.477   2.108
 2729SOL    HW118521   9.155   8.382   2.123
 2729SOL    HW218522   9.153   8.535   2.183
 2730SOL     OW18523   3.687   8.852   2.215
 2730SOL    HW118524   3.751   8.804   2.156
 2730SOL    HW218525   3.704   8.828   2.310
 2731SOL     OW18526   0.836   8.809   2.829
 2731SOL    HW118527   0.771   8.882   2.850
 2731SOL    HW218528   0.851   8.754   2.911
 2732SOL     OW18529   0.980   5.502   1.278
 2732SOL    HW118530   1.036   5.474   1.200
 2732SOL    HW218531   1.039   5.532   1.353
 2733SOL     OW18532   1.353   9.156   2.492
 2733SOL    HW118533   1.275   9.215   2.514
 2733SOL    HW218534   1.320   9.072   2.450
 2734SOL     OW18535   1.597   6.681   1.391
 2734SOL    HW118536   1.534   6.757   1.373
 2734SOL    HW218537   1.675   6.715   1.444
 2735SOL     OW18538   2.258   4.198   1.735
 2735SOL    HW118539   2.216   4.288   1.750
 2735SOL    HW218540   2.186   4.131   1.713
 2736SOL     OW18541   1.154   4.974   1.372
 2736SOL    HW118542   1.169   5.044   1.441
 2736SOL    HW218543   1.093   4.904   1.408
 2737SOL     OW18544   1.669   1.320   2.313
 2737SOL    HW118545   1.583   1.364   2.341
 2737SOL    HW218546   1.741   1.390   2.306
 2738SOL     OW18547   3.635   5.865   2.352
 2738SOL    HW118548   3.717   5.922   2.359
 2738SOL    HW218549   3.612   5.829   2.442
 2739SOL     OW18550   9.882   3.106   2.718
 2739SOL    HW118551   9.818   3.042   2.761
 2739SOL    HW218552   9.875   3.196   2.762
 2740SOL     OW18553   3.625   3.400   0.857
 2740SOL    HW118554   3.599   3.474   0.795
 2740SOL    HW218555   3.544   3.345   0.877
 2741SOL     OW18556   1.579   9.213   1.872
 2741SOL    HW118557   1.578   9.311   1.890
 2741SOL    HW218558   1.554   9.163   1.955
 2742SOL     OW18559   2.405   3.354   2.302
 2742SOL    HW118560   2.498   3.364   2.267
 2742SOL    HW218561   2.354   3.439   2.287
 2743SOL     OW18562   2.721   6.433   0.080
 2743SOL    HW118563   2.799   6.396   0.130
 2743SOL    HW218564   2.689   6.516   0.126
 2744SOL     OW18565   9.816   3.183   2.465
 2744SOL    HW118566   9.885   3.155   2.398
 2744SOL    HW218567   9.842   3.149   2.556
 2745SOL     OW18568   4.668   9.311   2.540
 2745SOL    HW118569   4.752   9.362   2.525
 2745SOL    HW218570   4.646   9.310   2.638
 2746SOL     OW18571   2.175   0.943   2.706
 2746SOL    HW118572   2.077   0.927   2.690
 2746SOL    HW218573   2.223   0.941   2.618
 2747SOL     OW18574   8.624   7.792   0.338
 2747SOL    HW118575   8.611   7.740   0.253
 2747SOL    HW218576   8.608   7.731   0.416
 2748SOL     OW18577   8.122   9.334   2.419
 2748SOL    HW118578   8.070   9.262   2.464
 2748SOL    HW218579   8.109   9.420   2.469
 2749SOL     OW18580   2.422   1.542   1.683
 2749SOL    HW118581   2.495   1.516   1.746
 2749SOL    HW218582   2.403   1.640   1.693
 2750SOL     OW18583   4.638   9.668   1.107
 2750SOL    HW118584   4.708   9.637   1.172
 2750SOL    HW218585   4.603   9.590   1.055
 2751SOL     OW18586   3.540   1.168   1.402
 2751SOL    HW118587   3.521   1.125   1.489
 2751SOL    HW218588   3.522   1.104   1.328
 2752SOL     OW18589   3.418   2.511   0.729
 2752SOL    HW118590   3.485   2.534   0.658
 2752SOL    HW218591   3.327   2.504   0.688
 2753SOL     OW18592   9.058   0.150   1.119
 2753SOL    HW118593   9.020   0.196   1.199
 2753SOL    HW218594   9.155   0.172   1.110
 2754SOL     OW18595   2.632   5.579   0.500
 2754SOL    HW118596   2.679   5.577   0.412
 2754SOL    HW218597   2.551   5.520   0.496
 2755SOL     OW18598   7.784   1.663   1.743
 2755SOL    HW118599   7.716   1.596   1.712
 2755SOL    HW218600   7.770   1.750   1.696
 2756SOL     OW18601   7.606   0.179   0.394
 2756SOL    HW118602   7.569   0.089   0.371
 2756SOL    HW218603   7.585   0.200   0.490
 2757SOL     OW18604   3.573   6.533   2.286
 2757SOL    HW118605   3.530   6.508   2.372
 2757SOL    HW218606   3.502   6.551   2.217
 2758SOL     OW18607   9.178   0.144   2.323
 2758SOL    HW118608   9.252   0.132   2.390
 2758SOL    HW218609   9.188   0.077   2.250
 2759SOL     OW18610   5.025   9.416   1.355
 2759SOL    HW118611   4.957   9.400   1.426
 2759SOL    HW218612   5.116   9.420   1.396
 2760SOL     OW18613   4.342   0.042   0.136
 2760SOL    HW118614   4.302   0.132   0.118
 2760SOL    HW218615   4.272   9.971   0.123
 2761SOL     OW18616   2.372   4.484   1.448
 2761SOL    HW118617   2.464   4.494   1.485
 2761SOL    HW218618   2.377   4.452   1.353
 2762SOL     OW18619   0.199   2.152   1.268
 2762SOL    HW118620   0.234   2.104   1.348
 2762SOL    HW218621   0.104   2.180   1.284
 2763SOL     OW18622   9.690   1.571   0.908
 2763SOL    HW118623   9.677   1.561   0.810
 2763SOL    HW218624   9.726   1.485   0.946
 2764SOL     OW18625   7.718   9.097   0.512
 2764SOL    HW118626   7.772   9.181   0.507
 2764SOL    HW218627   7.633   9.114   0.562
 2765SOL     OW18628   3.152   8.388   0.100
 2765SOL    HW118629   3.230   8.448   0.117
 2765SOL    HW218630   3.152   8.361   0.004
 2766SOL     OW18631   3.041   3.387   1.661
 2766SOL    HW118632   3.095   3.313   1.620
 2766SOL    HW218633   2.947   3.356   1.674
 2767SOL     OW18634   1.404   4.951   1.705
 2767SOL    HW118635   1.349   4.974   1.785
 2767SOL    HW218636   1.383   4.857   1.676
 2768SOL     OW18637   0.497   9.051   2.058
 2768SOL    HW118638   0.421   9.085   2.002
 2768SOL    HW218639   0.535   8.968   2.016
 2769SOL     OW18640   9.704   9.827   0.298
 2769SOL    HW118641   9.744   9.786   0.216
 2769SOL    HW218642   9.653   9.909   0.272
 2770SOL     OW18643   1.903   3.907   2.226
 2770SOL    HW118644   1.815   3.923   2.181
 2770SOL    HW218645   1.918   3.976   2.296
 2771SOL     OW18646   2.747   4.076   2.628
 2771SOL    HW118647   2.663   4.055   2.578
 2771SOL    HW218648   2.743   4.034   2.719
 2772SOL     OW18649   7.322   8.409   2.282
 2772SOL    HW118650   7.325   8.451   2.372
 2772SOL    HW218651   7.253   8.454   2.226
 2773SOL     OW18652   7.888   3.124   1.543
 2773SOL    HW118653   7.815   3.167   1.596
 2773SOL    HW218654   7.881   3.154   1.448
 2774SOL     OW18655   9.460   5.153   3.034
 2774SOL    HW118656   9.499   5.064   3.057
 2774SOL    HW218657   9.369   5.141   2.994
 2775SOL     OW18658   2.115   3.797   0.535
 2775SOL    HW118659   2.126   3.765   0.441
 2775SOL    HW218660   2.095   3.720   0.595
 2776SOL     OW18661   5.676   8.310   1.905
 2776SOL    HW118662   5.579   8.328   1.893
 2776SOL    HW218663   5.720   8.298   1.816
 2777SOL     OW18664   1.746   1.826   2.307
 2777SOL    HW118665   1.782   1.919   2.291
 2777SOL    HW218666   1.649   1.823   2.284
 2778SOL     OW18667   0.466   2.862   2.940
 2778SOL    HW118668   0.520   2.821   3.013
 2778SOL    HW218669   0.420   2.791   2.887
 2779SOL     OW18670   8.477   7.290   1.628
 2779SOL    HW118671   8.381   7.311   1.642
 2779SOL    HW218672   8.531   7.374   1.637
 2780SOL     OW18673   0.624   2.733   3.127
 2780SOL    HW118674   0.706   2.788   3.111
 2780SOL    HW218675   0.615   2.714   3.224
 2781SOL     OW18676   2.537   2.607   0.437
 2781SOL    HW118677   2.471   2.620   0.511
 2781SOL    HW218678   2.512   2.666   0.360
 2782SOL     OW18679   3.932   5.453   1.963
 2782SOL    HW118680   4.010   5.426   2.019
 2782SOL    HW218681   3.883   5.527   2.008
 2783SOL     OW18682   1.284   2.001   1.338
 2783SOL    HW118683   1.307   2.080   1.283
 2783SOL    HW218684   1.229   1.937   1.284
 2784SOL     OW18685   9.058   5.066   1.870
 2784SOL    HW118686   9.068   5.116   1.956
 2784SOL    HW218687   8.982   5.105   1.818
 2785SOL     OW18688   8.248   8.727   0.446
 2785SOL    HW118689   8.240   8.727   0.347
 2785SOL    HW218690   8.344   8.712   0.472
 2786SOL     OW18691   8.687   6.239   2.350
 2786SOL    HW118692   8.605   6.289   2.380
 2786SOL    HW218693   8.723   6.280   2.266
 2787SOL     OW18694   0.329   4.336   2.393
 2787SOL    HW118695   0.332   4.408   2.461
 2787SOL    HW218696   0.294   4.373   2.306
 2788SOL     OW18697   8.638   4.294   0.447
 2788SOL    HW118698   8.589   4.319   0.531
 2788SOL    HW218699   8.650   4.195   0.443
 2789SOL     OW18700   9.225   9.610   1.366
 2789SOL    HW118701   9.220   9.534   1.301
 2789SOL    HW218702   9.184   9.583   1.453
 2790SOL     OW18703   9.494   1.556   2.414
 2790SOL    HW118704   9.396   1.573   2.399
 2790SOL    HW218705   9.537   1.530   2.328
 2791SOL     OW18706   1.852   7.266   1.499
 2791SOL    HW118707   1.933   7.238   1.447
 2791SOL    HW218708   1.839   7.364   1.491
 2792SOL     OW18709   1.000   3.895   2.175
 2792SOL    HW118710   0.983   3.989   2.203
 2792SOL    HW218711   1.063   3.852   2.240
 2793SOL     OW18712   0.626   8.090   0.880
 2793SOL    HW118713   0.538   8.098   0.927
 2793SOL    HW218714   0.672   8.179   0.880
 2794SOL     OW18715   4.562   8.347   2.331
 2794SOL    HW118716   4.473   8.392   2.332
 2794SOL    HW218717   4.624   8.397   2.270
 2795SOL     OW18718   0.711   2.759   1.027
 2795SOL    HW118719   0.726   2.769   0.928
 2795SOL    HW218720   0.683   2.665   1.047
 2796SOL     OW18721   7.979   0.897   0.548
 2796SOL    HW118722   8.018   0.807   0.564
 2796SOL    HW218723   7.925   0.924   0.628
 2797SOL     OW18724   4.977   8.614   0.083
 2797SOL    HW118725   4.977   8.519   0.113
 2797SOL    HW218726   5.065   8.636   0.041
 2798SOL     OW18727   2.594   5.332   1.580
 2798SOL    HW118728   2.615   5.235   1.567
 2798SOL    HW218729   2.576   5.374   1.491
 2799SOL     OW18730   8.797   8.180   3.114
 2799SOL    HW118731   8.762   8.142   3.028
 2799SOL    HW218732   8.873   8.123   3.146
 2800SOL     OW18733   3.339   4.107   0.130
 2800SOL    HW118734   3.344   4.096   0.031
 2800SOL    HW218735   3.327   4.017   0.172
 2801SOL     OW18736   4.985   1.023   1.509
 2801SOL    HW118737   5.020   0.971   1.587
 2801SOL    HW218738   4.905   1.076   1.537
 2802SOL     OW18739   2.255   1.744   1.985
 2802SOL    HW118740   2.228   1.664   2.039
 2802SOL    HW218741   2.354   1.758   1.994
 2803SOL     OW18742   8.210   9.399   1.799
 2803SOL    HW118743   8.218   9.425   1.895
 2803SOL    HW218744   8.298   9.411   1.753
 2804SOL     OW18745   8.062   5.881   2.709
 2804SOL    HW118746   7.965   5.903   2.694
 2804SOL    HW218747   8.115   5.910   2.630
 2805SOL     OW18748   8.474   9.078   2.351
 2805SOL    HW118749   8.569   9.094   2.325
 2805SOL    HW218750   8.446   8.986   2.323
 2806SOL     OW18751   1.142   1.755   0.504
 2806SOL    HW118752   1.164   1.835   0.448
 2806SOL    HW218753   1.067   1.705   0.462
 2807SOL     OW18754   4.578   8.069   0.169
 2807SOL    HW118755   4.530   8.035   0.088
 2807SOL    HW218756   4.540   8.158   0.195
 2808SOL     OW18757   2.355   0.573   3.116
 2808SOL    HW118758   2.334   0.475   3.116
 2808SOL    HW218759   2.294   0.621   3.053
 2809SOL     OW18760   8.974   4.300   2.534
 2809SOL    HW118761   8.982   4.201   2.538
 2809SOL    HW218762   8.944   4.327   2.442
 2810SOL     OW18763   3.308   2.834   2.763
 2810SOL    HW118764   3.302   2.738   2.791
 2810SOL    HW218765   3.246   2.889   2.818
 2811SOL     OW18766   2.196   8.830   0.672
 2811SOL    HW118767   2.287   8.796   0.649
 2811SOL    HW218768   2.185   8.924   0.640
 2812SOL     OW18769   0.798   1.416   1.787
 2812SOL    HW118770   0.729   1.434   1.857
 2812SOL    HW218771   0.820   1.318   1.787
 2813SOL     OW18772   5.293   8.050   2.569
 2813SOL    HW118773   5.393   8.048   2.562
 2813SOL    HW218774   5.266   8.033   2.664
 2814SOL     OW18775   8.779   5.599   0.318
 2814SOL    HW118776   8.761   5.541   0.397
 2814SOL    HW218777   8.866   5.571   0.276
 2815SOL     OW18778   1.280   4.935   2.955
 2815SOL    HW118779   1.345   4.993   3.004
 2815SOL    HW218780   1.224   4.885   3.021
 2816SOL     OW18781   9.040   6.489   2.156
 2816SOL    HW118782   9.077   6.553   2.089
 2816SOL    HW218783   9.111   6.423   2.182
 2817SOL     OW18784   2.461   8.842   1.212
 2817SOL    HW118785   2.411   8.895   1.143
 2817SOL    HW218786   2.556   8.832   1.184
 2818SOL     OW18787   0.013   9.410   0.667
 2818SOL    HW118788   0.068   9.327   0.680
 2818SOL    HW218789   9.936   9.410   0.731
 2819SOL     OW18790   3.327   9.690   3.016
 2819SOL    HW118791   3.267   9.716   3.092
 2819SOL    HW218792   3.353   9.772   2.964
 2820SOL     OW18793   8.939   9.644   1.860
 2820SOL    HW118794   8.841   9.644   1.881
 2820SOL    HW218795   8.978   9.733   1.882
 2821SOL     OW18796   1.333   8.554   1.774
 2821SOL    HW118797   1.244   8.521   1.741
 2821SOL    HW218798   1.338   8.653   1.759
 2822SOL     OW18799   9.466   0.317   2.980
 2822SOL    HW118800   9.527   0.268   3.043
 2822SOL    HW218801   9.385   0.346   3.030
 2823SOL     OW18802   4.633   0.726   0.509
 2823SOL    HW118803   4.702   0.656   0.525
 2823SOL    HW218804   4.627   0.745   0.410
 2824SOL     OW18805   2.107   5.228   2.119
 2824SOL    HW118806   2.170   5.154   2.094
 2824SOL    HW218807   2.036   5.192   2.180
 2825SOL     OW18808   6.697   8.574   2.275
 2825SOL    HW118809   6.622   8.548   2.335
 2825SOL    HW218810   6.714   8.672   2.282
 2826SOL     OW18811   3.732   3.950   0.601
 2826SOL    HW118812   3.820   3.994   0.581
 2826SOL    HW218813   3.748   3.860   0.641
 2827SOL     OW18814   8.847   7.217   0.686
 2827SOL    HW118815   8.782   7.174   0.749
 2827SOL    HW218816   8.869   7.153   0.612
 2828SOL     OW18817   2.935   1.991   1.839
 2828SOL    HW118818   3.023   2.040   1.838
 2828SOL    HW218819   2.946   1.905   1.889
 2829SOL     OW18820   2.582   7.546   1.991
 2829SOL    HW118821   2.679   7.521   2.001
 2829SOL    HW218822   2.567   7.637   2.028
 2830SOL     OW18823   1.810   0.279   0.354
 2830SOL    HW118824   1.826   0.371   0.319
 2830SOL    HW218825   1.872   0.215   0.309
 2831SOL     OW18826   0.312   0.961   1.731
 2831SOL    HW118827   0.347   0.962   1.637
 2831SOL    HW218828   0.381   0.923   1.792
 2832SOL     OW18829   2.192   8.814   1.635
 2832SOL    HW118830   2.249   8.858   1.566
 2832SOL    HW218831   2.247   8.749   1.688
 2833SOL     OW18832   0.628   4.021   0.364
 2833SOL    HW118833   0.551   3.981   0.315
 2833SOL    HW218834   0.661   4.101   0.313
 2834SOL     OW18835   3.269   8.418   2.170
 2834SOL    HW118836   3.340   8.355   2.140
 2834SOL    HW218837   3.307   8.510   2.179
 2835SOL     OW18838   7.738   1.905   2.203
 2835SOL    HW118839   7.708   1.994   2.169
 2835SOL    HW218840   7.662   1.841   2.201
 2836SOL     OW18841   9.859   1.634   2.645
 2836SOL    HW118842   9.763   1.663   2.642
 2836SOL    HW218843   9.877   1.572   2.569
 2837SOL     OW18844   7.745   7.712   2.046
 2837SOL    HW118845   7.787   7.722   2.136
 2837SOL    HW218846   7.733   7.801   2.004
 2838SOL     OW18847   1.020   6.385   1.976
 2838SOL    HW118848   1.074   6.333   1.910
 2838SOL    HW218849   0.923   6.376   1.953
 2839SOL     OW18850   0.089   4.723   2.798
 2839SOL    HW118851   0.123   4.665   2.873
 2839SOL    HW218852   0.142   4.807   2.795
 2840SOL     OW18853   4.060   9.267   0.264
 2840SOL    HW118854   4.063   9.363   0.239
 2840SOL    HW218855   3.997   9.254   0.340
 2841SOL     OW18856   3.884   4.882   2.327
 2841SOL    HW118857   3.926   4.955   2.273
 2841SOL    HW218858   3.844   4.814   2.265
 2842SOL     OW18859   8.494   5.407   0.380
 2842SOL    HW118860   8.515   5.346   0.304
 2842SOL    HW218861   8.575   5.414   0.439
 2843SOL     OW18862   2.406   7.296   0.383
 2843SOL    HW118863   2.453   7.304   0.295
 2843SOL    HW218864   2.409   7.201   0.414
 2844SOL     OW18865   8.376   1.319   2.160
 2844SOL    HW118866   8.280   1.343   2.175
 2844SOL    HW218867   8.395   1.319   2.062
 2845SOL     OW18868   2.020   5.598   1.136
 2845SOL    HW118869   1.973   5.546   1.207
 2845SOL    HW218870   2.096   5.649   1.176
 2846SOL     OW18871   0.161   3.096   0.126
 2846SOL    HW118872   0.157   3.194   0.148
 2846SOL    HW218873   0.108   3.045   0.193
 2847SOL     OW18874   0.719   2.246   1.006
 2847SOL    HW118875   0.674   2.335   1.011
 2847SOL    HW218876   0.771   2.240   0.921
 2848SOL     OW18877   4.251   7.485   1.013
 2848SOL    HW118878   4.326   7.443   1.062
 2848SOL    HW218879   4.248   7.583   1.034
 2849SOL     OW18880   3.964   9.005   0.842
 2849SOL    HW118881   3.891   9.000   0.911
 2849SOL    HW218882   4.046   8.959   0.876
 2850SOL     OW18883   9.277   1.361   3.037
 2850SOL    HW118884   9.303   1.449   3.078
 2850SOL    HW218885   9.347   1.332   2.971
 2851SOL     OW18886   0.327   7.653   0.390
 2851SOL    HW118887   0.230   7.672   0.373
 2851SOL    HW218888   0.335   7.572   0.448
 2852SOL     OW18889   7.358   8.978   0.445
 2852SOL    HW118890   7.362   9.043   0.370
 2852SOL    HW218891   7.389   8.888   0.413
 2853SOL     OW18892   4.861   9.623   0.479
 2853SOL    HW118893   4.858   9.723   0.487
 2853SOL    HW218894   4.867   9.598   0.382
 2854SOL     OW18895   2.034   5.023   3.068
 2854SOL    HW118896   2.045   5.072   2.982
 2854SOL    HW218897   1.959   5.063   3.121
 2855SOL     OW18898   0.874   8.965   0.302
 2855SOL    HW118899   0.895   8.869   0.285
 2855SOL    HW218900   0.779   8.983   0.278
 2856SOL     OW18901   3.960   5.764   2.306
 2856SOL    HW118902   3.931   5.860   2.309
 2856SOL    HW218903   3.960   5.726   2.399
 2857SOL     OW18904   3.787   5.245   2.552
 2857SOL    HW118905   3.693   5.260   2.585
 2857SOL    HW218906   3.810   5.148   2.562
 2858SOL     OW18907   9.012   9.436   2.026
 2858SOL    HW118908   8.989   9.517   1.972
 2858SOL    HW218909   9.109   9.413   2.012
 2859SOL     OW18910   3.763   1.562   0.242
 2859SOL    HW118911   3.667   1.589   0.242
 2859SOL    HW218912   3.805   1.588   0.154
 2860SOL     OW18913   4.949   0.299   1.931
 2860SOL    HW118914   4.951   0.390   1.974
 2860SOL    HW218915   4.952   0.310   1.832
 2861SOL     OW18916   1.719   1.730   0.968
 2861SOL    HW118917   1.818   1.743   0.974
 2861SOL    HW218918   1.675   1.816   0.942
 2862SOL     OW18919   8.684   0.022   0.740
 2862SOL    HW118920   8.740   0.060   0.814
 2862SOL    HW218921   8.741   9.965   0.681
 2863SOL     OW18922   8.814   4.503   0.538
 2863SOL    HW118923   8.763   4.556   0.606
 2863SOL    HW218924   8.753   4.441   0.490
 2864SOL     OW18925   8.512   3.546   2.549
 2864SOL    HW118926   8.471   3.459   2.576
 2864SOL    HW218927   8.605   3.552   2.584
 2865SOL     OW18928   6.152   9.263   2.263
 2865SOL    HW118929   6.200   9.188   2.218
 2865SOL    HW218930   6.215   9.338   2.281
 2866SOL     OW18931   3.215   7.268   1.965
 2866SOL    HW118932   3.249   7.244   2.057
 2866SOL    HW218933   3.142   7.335   1.973
 2867SOL     OW18934   3.579   8.922   0.550
 2867SOL    HW118935   3.541   9.008   0.581
 2867SOL    HW218936   3.590   8.924   0.450
 2868SOL     OW18937   5.139   8.272   2.549
 2868SOL    HW118938   5.188   8.185   2.541
 2868SOL    HW218939   5.180   8.326   2.623
 2869SOL     OW18940   0.189   8.900   2.316
 2869SOL    HW118941   0.134   8.983   2.308
 2869SOL    HW218942   0.143   8.836   2.377
 2870SOL     OW18943   8.444   8.802   2.270
 2870SOL    HW118944   8.501   8.854   2.206
 2870SOL    HW218945   8.380   8.745   2.219
 2871SOL     OW18946   4.015   4.053   1.722
 2871SOL    HW118947   3.994   3.970   1.671
 2871SOL    HW218948   3.931   4.106   1.735
 2872SOL     OW18949   1.285   1.184   1.714
 2872SOL    HW118950   1.373   1.189   1.666
 2872SOL    HW218951   1.232   1.267   1.695
 2873SOL     OW18952   3.900   7.163   2.530
 2873SOL    HW118953   3.860   7.098   2.465
 2873SOL    HW218954   3.986   7.198   2.493
 2874SOL     OW18955   2.405   5.877   1.441
 2874SOL    HW118956   2.472   5.947   1.415
 2874SOL    HW218957   2.391   5.880   1.540
 2875SOL     OW18958   1.504   9.115   0.778
 2875SOL    HW118959   1.561   9.058   0.837
 2875SOL    HW218960   1.534   9.211   0.784
 2876SOL     OW18961   1.459   6.590   1.752
 2876SOL    HW118962   1.555   6.591   1.724
 2876SOL    HW218963   1.428   6.684   1.768
 2877SOL     OW18964   4.872   9.063   2.100
 2877SOL    HW118965   4.864   8.973   2.057
 2877SOL    HW218966   4.909   9.054   2.192
 2878SOL     OW18967   1.610   5.137   1.265
 2878SOL    HW118968   1.571   5.122   1.356
 2878SOL    HW218969   1.698   5.091   1.259
 2879SOL     OW18970   0.377   8.106   1.001
 2879SOL    HW118971   0.312   8.070   0.935
 2879SOL    HW218972   0.377   8.048   1.083
 2880SOL     OW18973   3.009   9.392   2.000
 2880SOL    HW118974   3.057   9.478   2.017
 2880SOL    HW218975   3.024   9.363   1.906
 2881SOL     OW18976   1.922   5.103   2.301
 2881SOL    HW118977   1.888   5.139   2.388
 2881SOL    HW218978   1.944   5.006   2.311
 2882SOL     OW18979   2.944   6.545   1.303
 2882SOL    HW118980   2.936   6.538   1.403
 2882SOL    HW218981   2.996   6.466   1.269
 2883SOL     OW18982   4.863   0.130   2.369
 2883SOL    HW118983   4.924   0.187   2.424
 2883SOL    HW218984   4.774   0.174   2.361
 2884SOL     OW18985   3.134   3.158   1.516
 2884SOL    HW118986   3.066   3.173   1.443
 2884SOL    HW218987   3.223   3.138   1.475
 2885SOL     OW18988   7.363   9.534   1.557
 2885SOL    HW118989   7.411   9.613   1.597
 2885SOL    HW218990   7.361   9.460   1.624
 2886SOL     OW18991   9.186   3.387   2.615
 2886SOL    HW118992   9.264   3.325   2.622
 2886SOL    HW218993   9.127   3.357   2.540
 2887SOL     OW18994   7.870   9.611   0.273
 2887SOL    HW118995   7.937   9.656   0.332
 2887SOL    HW218996   7.911   9.531   0.231
 2888SOL     OW18997   2.957   3.074   2.710
 2888SOL    HW118998   2.895   3.132   2.763
 2888SOL    HW218999   2.906   2.999   2.668
 2889SOL     OW19000   7.309   8.824   2.209
 2889SOL    HW119001   7.244   8.897   2.227
 2889SOL    HW219002   7.402   8.853   2.233
 2890SOL     OW19003   2.516   9.876   0.073
 2890SOL    HW119004   2.425   9.836   0.065
 2890SOL    HW219005   2.508   9.970   0.106
 2891SOL     OW19006   0.758   9.064   1.710
 2891SOL    HW119007   0.666   9.103   1.707
 2891SOL    HW219008   0.812   9.097   1.633
 2892SOL     OW19009   8.069   2.050   0.881
 2892SOL    HW119010   8.160   2.033   0.920
 2892SOL    HW219011   7.999   2.033   0.950
 2893SOL     OW19012   9.889   8.607   1.328
 2893SOL    HW119013   9.859   8.519   1.293
 2893SOL    HW219014   9.832   8.633   1.407
 2894SOL     OW19015   8.972   6.096   2.245
 2894SOL    HW119016   9.017   6.119   2.159
 2894SOL    HW219017   8.887   6.148   2.253
 2895SOL     OW19018   9.964   5.970   0.494
 2895SOL    HW119019   9.943   5.968   0.396
 2895SOL    HW219020   9.973   6.065   0.524
 2896SOL     OW19021   0.973   7.097   2.970
 2896SOL    HW119022   1.051   7.153   2.944
 2896SOL    HW219023   0.889   7.152   2.967
 2897SOL     OW19024   4.491   0.765   2.836
 2897SOL    HW119025   4.508   0.679   2.787
 2897SOL    HW219026   4.511   0.842   2.776
 2898SOL     OW19027   9.789   3.542   0.994
 2898SOL    HW119028   9.860   3.479   1.025
 2898SOL    HW219029   9.699   3.506   1.021
 2899SOL     OW19030   0.787   3.609   2.548
 2899SOL    HW119031   0.689   3.628   2.553
 2899SOL    HW219032   0.822   3.642   2.460
 2900SOL     OW19033   2.868   7.274   0.887
 2900SOL    HW119034   2.771   7.258   0.868
 2900SOL    HW219035   2.882   7.276   0.986
 2901SOL     OW19036   3.764   7.017   0.814
 2901SOL    HW119037   3.691   7.076   0.848
 2901SOL    HW219038   3.825   6.993   0.890
 2902SOL     OW19039   1.212   7.537   0.601
 2902SOL    HW119040   1.182   7.559   0.508
 2902SOL    HW219041   1.166   7.455   0.632
 2903SOL     OW19042   9.326   6.036   0.881
 2903SOL    HW119043   9.394   6.056   0.811
 2903SOL    HW219044   9.363   6.059   0.971
 2904SOL     OW19045   4.229   0.326   2.091
 2904SOL    HW119046   4.275   0.366   2.013
 2904SOL    HW219047   4.131   0.314   2.071
 2905SOL     OW19048   1.181   3.288   0.567
 2905SOL    HW119049   1.099   3.287   0.625
 2905SOL    HW219050   1.263   3.294   0.624
 2906SOL     OW19051   8.693   7.047   1.381
 2906SOL    HW119052   8.643   6.996   1.451
 2906SOL    HW219053   8.748   7.119   1.424
 2907SOL     OW19054   4.697   2.364   1.392
 2907SOL    HW119055   4.654   2.438   1.444
 2907SOL    HW219056   4.674   2.276   1.432
 2908SOL     OW19057   9.758   5.858   3.059
 2908SOL    HW119058   9.781   5.761   3.047
 2908SOL    HW219059   9.795   5.910   2.983
 2909SOL     OW19060   4.813   0.579   0.117
 2909SOL    HW119061   4.879   0.576   0.041
 2909SOL    HW219062   4.795   0.486   0.148
 2910SOL     OW19063   8.486   2.715   1.693
 2910SOL    HW119064   8.513   2.773   1.770
 2910SOL    HW219065   8.519   2.622   1.708
 2911SOL     OW19066   8.628   8.106   1.607
 2911SOL    HW119067   8.624   8.187   1.666
 2911SOL    HW219068   8.672   8.130   1.521
 2912SOL     OW19069   1.991   3.574   2.563
 2912SOL    HW119070   1.948   3.607   2.648
 2912SOL    HW219071   1.939   3.609   2.485
 2913SOL     OW19072   2.609   6.319   1.338
 2913SOL    HW119073   2.642   6.313   1.244
 2913SOL    HW219074   2.626   6.412   1.373
 2914SOL     OW19075   8.303   0.461   2.895
 2914SOL    HW119076   8.227   0.401   2.872
 2914SOL    HW219077   8.359   0.417   2.966
 2915SOL     OW19078   2.967   3.666   1.435
 2915SOL    HW119079   2.886   3.608   1.431
 2915SOL    HW219080   3.005   3.663   1.528
 2916SOL     OW19081   9.042   0.049   0.765
 2916SOL    HW119082   9.027   9.951   0.775
 2916SOL    HW219083   8.972   0.099   0.816
 2917SOL     OW19084   0.622   4.822   1.657
 2917SOL    HW119085   0.647   4.830   1.561
 2917SOL    HW219086   0.587   4.910   1.690
 2918SOL     OW19087   2.324   1.802   1.725
 2918SOL    HW119088   2.263   1.868   1.683
 2918SOL    HW219089   2.289   1.776   1.815
 2919SOL     OW19090   0.851   2.489   2.939
 2919SOL    HW119091   0.920   2.460   3.005
 2919SOL    HW219092   0.861   2.587   2.921
 2920SOL     OW19093   2.775   3.315   1.680
 2920SOL    HW119094   2.753   3.221   1.653
 2920SOL    HW219095   2.746   3.378   1.608
 2921SOL     OW19096   4.118   2.409   1.924
 2921SOL    HW119097   4.080   2.331   1.874
 2921SOL    HW219098   4.067   2.423   2.009
 2922SOL     OW19099   4.245   1.542   0.843
 2922SOL    HW119100   4.261   1.517   0.748
 2922SOL    HW219101   4.165   1.493   0.878
 2923SOL     OW19102   8.303   9.668   1.180
 2923SOL    HW119103   8.221   9.632   1.224
 2923SOL    HW219104   8.378   9.669   1.246
 2924SOL     OW19105   0.228   5.003   0.819
 2924SOL    HW119106   0.284   4.939   0.767
 2924SOL    HW219107   0.286   5.075   0.858
 2925SOL     OW19108   7.427   1.130   2.518
 2925SOL    HW119109   7.363   1.058   2.545
 2925SOL    HW219110   7.518   1.108   2.551
 2926SOL     OW19111   4.073   4.432   2.993
 2926SOL    HW119112   4.137   4.361   2.964
 2926SOL    HW219113   3.993   4.390   3.036
 2927SOL     OW19114   7.562   8.636   2.416
 2927SOL    HW119115   7.565   8.715   2.355
 2927SOL    HW219116   7.467   8.610   2.433
 2928SOL     OW19117   0.081   9.380   2.974
 2928SOL    HW119118   9.999   9.323   2.982
 2928SOL    HW219119   0.056   9.468   2.933
 2929SOL     OW19120   4.380   0.440   0.377
 2929SOL    HW119121   4.380   0.505   0.453
 2929SOL    HW219122   4.352   0.350   0.411
 2930SOL     OW19123   0.223   8.385   1.858
 2930SOL    HW119124   0.178   8.466   1.896
 2930SOL    HW219125   0.293   8.353   1.922
 2931SOL     OW19126   3.659   0.291   2.906
 2931SOL    HW119127   3.715   0.232   2.848
 2931SOL    HW219128   3.685   0.386   2.892
 2932SOL     OW19129   8.531   6.072   1.788
 2932SOL    HW119130   8.580   6.027   1.864
 2932SOL    HW219131   8.474   6.004   1.741
 2933SOL     OW19132   3.980   7.952   0.200
 2933SOL    HW119133   3.918   8.005   0.142
 2933SOL    HW219134   3.929   7.916   0.278
 2934SOL     OW19135   8.219   7.137   2.335
 2934SOL    HW119136   8.161   7.072   2.384
 2934SOL    HW219137   8.287   7.174   2.398
 2935SOL     OW19138   2.970   3.138   1.043
 2935SOL    HW119139   3.043   3.098   0.988
 2935SOL    HW219140   2.887   3.145   0.988
 2936SOL     OW19141   1.343   2.221   1.189
 2936SOL    HW119142   1.314   2.291   1.254
 2936SOL    HW219143   1.327   2.252   1.096
 2937SOL     OW19144   8.009   1.856   2.199
 2937SOL    HW119145   8.016   1.762   2.233
 2937SOL    HW219146   7.912   1.880   2.189
 2938SOL     OW19147   2.407   4.078   1.538
 2938SOL    HW119148   2.338   4.014   1.503
 2938SOL    HW219149   2.364   4.138   1.606
 2939SOL     OW19150   9.478   7.304   1.084
 2939SOL    HW119151   9.498   7.384   1.140
 2939SOL    HW219152   9.429   7.236   1.138
 2940SOL     OW19153   9.107   0.549   1.075
 2940SOL    HW119154   9.102   0.642   1.111
 2940SOL    HW219155   9.020   0.502   1.091
 2941SOL     OW19156   0.051   2.213   2.130
 2941SOL    HW119157   0.094   2.185   2.044
 2941SOL    HW219158   0.001   2.298   2.115
 2942SOL     OW19159   8.807   1.221   2.190
 2942SOL    HW119160   8.754   1.145   2.151
 2942SOL    HW219161   8.891   1.187   2.231
 2943SOL     OW19162   9.718   2.253   1.677
 2943SOL    HW119163   9.774   2.192   1.620
 2943SOL    HW219164   9.664   2.198   1.741
 2944SOL     OW19165   5.478   8.221   2.779
 2944SOL    HW119166   5.487   8.177   2.868
 2944SOL    HW219167   5.390   8.270   2.774
 2945SOL     OW19168   1.088   5.961   0.186
 2945SOL    HW119169   1.178   5.936   0.150
 2945SOL    HW219170   1.098   6.033   0.254
 2946SOL     OW19171   8.623   2.459   0.291
 2946SOL    HW119172   8.557   2.385   0.279
 2946SOL    HW219173   8.701   2.443   0.230
 2947SOL     OW19174   1.802   7.748   1.652
 2947SOL    HW119175   1.882   7.804   1.630
 2947SOL    HW219176   1.802   7.729   1.750
 2948SOL     OW19177   0.883   7.481   0.121
 2948SOL    HW119178   0.979   7.457   0.104
 2948SOL    HW219179   0.870   7.579   0.105
 2949SOL     OW19180   9.691   3.105   1.888
 2949SOL    HW119181   9.610   3.071   1.840
 2949SOL    HW219182   9.719   3.193   1.850
 2950SOL     OW19183   4.262   7.665   2.837
 2950SOL    HW119184   4.273   7.605   2.917
 2950SOL    HW219185   4.268   7.760   2.867
 2951SOL     OW19186   1.802   0.531   0.916
 2951SOL    HW119187   1.767   0.624   0.908
 2951SOL    HW219188   1.734   0.473   0.961
 2952SOL     OW19189   8.728   1.602   0.744
 2952SOL    HW119190   8.724   1.694   0.785
 2952SOL    HW219191   8.667   1.599   0.665
 2953SOL     OW19192   3.802   1.254   1.430
 2953SOL    HW119193   3.706   1.229   1.416
 2953SOL    HW219194   3.830   1.229   1.523
 2954SOL     OW19195   7.078   8.015   2.929
 2954SOL    HW119196   7.039   8.060   2.849
 2954SOL    HW219197   7.023   7.935   2.953
 2955SOL     OW19198   0.184   1.049   1.351
 2955SOL    HW119199   0.185   0.982   1.277
 2955SOL    HW219200   0.255   1.027   1.418
 2956SOL     OW19201   2.620   1.249   1.119
 2956SOL    HW119202   2.589   1.170   1.173
 2956SOL    HW219203   2.695   1.221   1.059
 2957SOL     OW19204   0.179   5.371   0.723
 2957SOL    HW119205   0.108   5.373   0.793
 2957SOL    HW219206   0.137   5.362   0.633
 2958SOL     OW19207   2.265   7.587   0.856
 2958SOL    HW119208   2.358   7.621   0.848
 2958SOL    HW219209   2.206   7.637   0.793
 2959SOL     OW19210   4.224   2.427   2.271
 2959SOL    HW119211   4.218   2.403   2.368
 2959SOL    HW219212   4.132   2.445   2.235
 2960SOL     OW19213   3.376   4.727   0.278
 2960SOL    HW119214   3.342   4.699   0.368
 2960SOL    HW219215   3.419   4.650   0.233
 2961SOL     OW19216   8.798   6.363   2.138
 2961SOL    HW119217   8.740   6.412   2.072
 2961SOL    HW219218   8.888   6.407   2.143
 2962SOL     OW19219   1.801   5.189   2.536
 2962SOL    HW119220   1.706   5.220   2.531
 2962SOL    HW219221   1.809   5.114   2.601
 2963SOL     OW19222   2.003   1.392   0.714
 2963SOL    HW119223   1.908   1.365   0.697
 2963SOL    HW219224   2.009   1.492   0.718
 2964SOL     OW19225   0.573   7.233   0.320
 2964SOL    HW119226   0.650   7.291   0.346
 2964SOL    HW219227   0.565   7.231   0.221
 2965SOL     OW19228   1.001   4.686   0.590
 2965SOL    HW119229   0.943   4.682   0.671
 2965SOL    HW219230   0.947   4.663   0.509
 2966SOL     OW19231   8.061   1.072   2.813
 2966SOL    HW119232   8.009   1.116   2.887
 2966SOL    HW219233   8.150   1.117   2.805
 2967SOL     OW19234   7.978   5.191   1.552
 2967SOL    HW119235   8.032   5.156   1.629
 2967SOL    HW219236   8.022   5.163   1.466
 2968SOL     OW19237   9.750   2.237   0.312
 2968SOL    HW119238   9.812   2.196   0.379
 2968SOL    HW219239   9.714   2.323   0.348
 2969SOL     OW19240   2.858   0.504   1.442
 2969SOL    HW119241   2.812   0.442   1.379
 2969SOL    HW219242   2.848   0.470   1.536
 2970SOL     OW19243   4.464   8.159   1.350
 2970SOL    HW119244   4.489   8.150   1.446
 2970SOL    HW219245   4.414   8.078   1.320
 2971SOL     OW19246   3.092   2.178   2.725
 2971SOL    HW119247   3.097   2.092   2.674
 2971SOL    HW219248   3.002   2.187   2.767
 2972SOL     OW19249   7.480   9.158   0.631
 2972SOL    HW119250   7.471   9.153   0.731
 2972SOL    HW219251   7.426   9.084   0.590
 2973SOL     OW19252   1.686   7.676   1.075
 2973SOL    HW119253   1.628   7.657   0.996
 2973SOL    HW219254   1.631   7.719   1.147
 2974SOL     OW19255   1.785   0.512   2.959
 2974SOL    HW119256   1.738   0.431   2.923
 2974SOL    HW219257   1.718   0.582   2.984
 2975SOL     OW19258   0.105   3.336   0.836
 2975SOL    HW119259   0.020   3.349   0.785
 2975SOL    HW219260   0.182   3.367   0.780
 2976SOL     OW19261   0.609   6.233   1.229
 2976SOL    HW119262   0.551   6.313   1.213
 2976SOL    HW219263   0.586   6.162   1.163
 2977SOL     OW19264   1.135   0.248   1.879
 2977SOL    HW119265   1.183   0.295   1.804
 2977SOL    HW219266   1.179   0.270   1.965
 2978SOL     OW19267   8.760   2.487   1.324
 2978SOL    HW119268   8.769   2.443   1.414
 2978SOL    HW219269   8.811   2.573   1.324
 2979SOL     OW19270   0.277   0.546   2.576
 2979SOL    HW119271   0.331   0.630   2.578
 2979SOL    HW219272   0.192   0.562   2.525
 2980SOL     OW19273   8.296   7.745   1.308
 2980SOL    HW119274   8.321   7.750   1.211
 2980SOL    HW219275   8.241   7.824   1.332
 2981SOL     OW19276   8.753   8.941   2.972
 2981SOL    HW119277   8.685   8.923   3.044
 2981SOL    HW219278   8.718   9.012   2.912
 2982SOL     OW19279   9.577   9.245   0.488
 2982SOL    HW119280   9.640   9.304   0.438
 2982SOL    HW219281   9.534   9.297   0.562
 2983SOL     OW19282   7.629   6.906   2.676
 2983SOL    HW119283   7.550   6.961   2.705
 2983SOL    HW219284   7.618   6.812   2.709
 2984SOL     OW19285   0.492   6.925   1.016
 2984SOL    HW119286   0.581   6.963   0.989
 2984SOL    HW219287   0.507   6.836   1.061
 2985SOL     OW19288   8.281   6.608   1.658
 2985SOL    HW119289   8.326   6.636   1.574
 2985SOL    HW219290   8.233   6.521   1.643
 2986SOL     OW19291   6.753   9.823   2.131
 2986SOL    HW119292   6.812   9.904   2.127
 2986SOL    HW219293   6.796   9.752   2.186
 2987SOL     OW19294   0.517   1.206   2.663
 2987SOL    HW119295   0.538   1.114   2.694
 2987SOL    HW219296   0.452   1.202   2.587
 2988SOL     OW19297   0.987   0.317   1.180
 2988SOL    HW119298   1.019   0.315   1.275
 2988SOL    HW219299   1.013   0.232   1.134
 2989SOL     OW19300   9.781   8.045   1.863
 2989SOL    HW119301   9.729   7.971   1.904
 2989SOL    HW219302   9.806   8.111   1.933
 2990SOL     OW19303   5.679   7.629   2.906
 2990SOL    HW119304   5.769   7.658   2.873
 2990SOL    HW219305   5.632   7.579   2.833
 2991SOL     OW19306   0.006   7.986   1.020
 2991SOL    HW119307   0.080   7.985   0.953
 2991SOL    HW219308   9.933   8.046   0.988
 2992SOL     OW19309   1.479   5.322   0.846
 2992SOL    HW119310   1.422   5.400   0.871
 2992SOL    HW219311   1.469   5.250   0.915
 2993SOL     OW19312   7.496   7.790   2.328
 2993SOL    HW119313   7.409   7.773   2.281
 2993SOL    HW219314   7.542   7.868   2.286
 2994SOL     OW19315   0.698   6.893   1.779
 2994SOL    HW119316   0.686   6.983   1.820
 2994SOL    HW219317   0.628   6.830   1.815
 2995SOL     OW19318   8.324   3.412   1.722
 2995SOL    HW119319   8.273   3.440   1.641
 2995SOL    HW219320   8.413   3.378   1.695
 2996SOL     OW19321   0.935   1.541   0.038
 2996SOL    HW119322   0.922   1.567   3.983
 2996SOL    HW219323   1.010   1.596   0.077
 2997SOL     OW19324   6.783   8.123   2.549
 2997SOL    HW119325   6.853   8.169   2.605
 2997SOL    HW219326   6.810   8.126   2.453
 2998SOL     OW19327   2.675   5.515   2.283
 2998SOL    HW119328   2.720   5.560   2.361
 2998SOL    HW219329   2.716   5.548   2.198
 2999SOL     OW19330   8.616   1.173   0.108
 2999SOL    HW119331   8.539   1.236   0.117
 2999SOL    HW219332   8.701   1.220   0.129
 3000SOL     OW19333   6.796   8.764   1.957
 3000SOL    HW119334   6.839   8.694   2.014
 3000SOL    HW219335   6.697   8.764   1.974
 3001SOL     OW19336   9.591   6.765   1.613
 3001SOL    HW119337   9.637   6.676   1.610
 3001SOL    HW219338   9.642   6.831   1.558
 3002SOL     OW19339   9.517   8.817   1.635
 3002SOL    HW119340   9.514   8.864   1.723
 3002SOL    HW219341   9.470   8.871   1.566
 3003SOL     OW19342   4.701   3.395   0.425
 3003SOL    HW119343   4.698   3.443   0.338
 3003SOL    HW219344   4.789   3.414   0.470
 3004SOL     OW19345   0.370   1.161   3.061
 3004SOL    HW119346   0.419   1.076   3.044
 3004SOL    HW219347   0.431   1.226   3.107
 3005SOL     OW19348   2.656   3.386   2.216
 3005SOL    HW119349   2.717   3.434   2.279
 3005SOL    HW219350   2.702   3.373   2.128
 3006SOL     OW19351   3.076   8.974   2.593
 3006SOL    HW119352   3.021   9.020   2.663
 3006SOL    HW219353   3.149   9.036   2.563
 3007SOL     OW19354   7.843   8.341   2.879
 3007SOL    HW119355   7.813   8.262   2.827
 3007SOL    HW219356   7.935   8.367   2.852
 3008SOL     OW19357   2.946   3.814   2.884
 3008SOL    HW119358   2.998   3.783   2.805
 3008SOL    HW219359   3.005   3.868   2.944
 3009SOL     OW19360   4.071   4.112   2.706
 3009SOL    HW119361   4.136   4.135   2.778
 3009SOL    HW219362   4.059   4.012   2.703
 3010SOL     OW19363   4.616   8.297   2.600
 3010SOL    HW119364   4.603   8.330   2.507
 3010SOL    HW219365   4.712   8.306   2.626
 3011SOL     OW19366   2.410   8.459   1.980
 3011SOL    HW119367   2.379   8.431   2.071
 3011SOL    HW219368   2.483   8.398   1.950
 3012SOL     OW19369   3.905   4.261   2.020
 3012SOL    HW119370   3.879   4.261   1.923
 3012SOL    HW219371   3.823   4.256   2.076
 3013SOL     OW19372   2.442   4.997   0.307
 3013SOL    HW119373   2.365   4.938   0.280
 3013SOL    HW219374   2.528   4.955   0.278
 3014SOL     OW19375   4.287   1.441   0.588
 3014SOL    HW119376   4.218   1.376   0.555
 3014SOL    HW219377   4.362   1.391   0.631
 3015SOL     OW19378   7.077   9.695   2.476
 3015SOL    HW119379   7.154   9.713   2.537
 3015SOL    HW219380   6.991   9.714   2.525
 3016SOL     OW19381   1.859   1.758   2.546
 3016SOL    HW119382   1.824   1.789   2.458
 3016SOL    HW219383   1.789   1.702   2.591
 3017SOL     OW19384   2.544   1.696   1.139
 3017SOL    HW119385   2.596   1.618   1.175
 3017SOL    HW219386   2.530   1.763   1.212
 3018SOL     OW19387   9.198   3.261   2.181
 3018SOL    HW119388   9.111   3.240   2.137
 3018SOL    HW219389   9.264   3.188   2.163
 3019SOL     OW19390   1.184   4.237   2.073
 3019SOL    HW119391   1.259   4.294   2.104
 3019SOL    HW219392   1.113   4.295   2.033
 3020SOL     OW19393   8.323   8.162   3.092
 3020SOL    HW119394   8.378   8.097   3.040
 3020SOL    HW219395   8.357   8.168   3.186
 3021SOL     OW19396   9.624   1.503   0.205
 3021SOL    HW119397   9.552   1.504   0.135
 3021SOL    HW219398   9.631   1.593   0.247
 3022SOL     OW19399   7.763   2.662   0.846
 3022SOL    HW119400   7.794   2.724   0.774
 3022SOL    HW219401   7.695   2.599   0.809
 3023SOL     OW19402   2.171   4.257   0.504
 3023SOL    HW119403   2.241   4.220   0.565
 3023SOL    HW219404   2.152   4.353   0.527
 3024SOL     OW19405   7.302   8.700   1.459
 3024SOL    HW119406   7.327   8.651   1.375
 3024SOL    HW219407   7.292   8.797   1.439
 3025SOL     OW19408   9.708   8.894   0.431
 3025SOL    HW119409   9.754   8.957   0.493
 3025SOL    HW219410   9.622   8.935   0.399
 3026SOL     OW19411   9.852   0.066   0.420
 3026SOL    HW119412   9.756   0.048   0.445
 3026SOL    HW219413   9.900   9.980   0.409
 3027SOL     OW19414   0.700   7.951   2.256
 3027SOL    HW119415   0.618   7.938   2.311
 3027SOL    HW219416   0.753   8.028   2.293
 3028SOL     OW19417   6.168   8.679   2.724
 3028SOL    HW119418   6.165   8.760   2.666
 3028SOL    HW219419   6.076   8.642   2.734
 3029SOL     OW19420   2.398   4.944   1.489
 3029SOL    HW119421   2.324   5.011   1.488
 3029SOL    HW219422   2.366   4.859   1.531
 3030SOL     OW19423   3.643   3.740   1.145
 3030SOL    HW119424   3.621   3.782   1.057
 3030SOL    HW219425   3.671   3.812   1.209
 3031SOL     OW19426   2.798   2.886   0.854
 3031SOL    HW119427   2.799   2.986   0.856
 3031SOL    HW219428   2.704   2.854   0.838
 3032SOL     OW19429   1.349   5.820   0.395
 3032SOL    HW119430   1.261   5.773   0.393
 3032SOL    HW219431   1.358   5.870   0.481
 3033SOL     OW19432   3.112   9.046   0.385
 3033SOL    HW119433   3.141   9.108   0.313
 3033SOL    HW219434   3.046   8.980   0.349
 3034SOL     OW19435   2.135   4.579   2.866
 3034SOL    HW119436   2.079   4.499   2.846
 3034SOL    HW219437   2.083   4.645   2.920
 3035SOL     OW19438   2.928   6.566   2.470
 3035SOL    HW119439   2.991   6.638   2.439
 3035SOL    HW219440   2.845   6.608   2.507
 3036SOL     OW19441   2.544   5.101   2.912
 3036SOL    HW119442   2.640   5.102   2.887
 3036SOL    HW219443   2.516   5.008   2.934
 3037SOL     OW19444   0.980   2.399   0.430
 3037SOL    HW119445   0.917   2.360   0.497
 3037SOL    HW219446   1.036   2.327   0.391
 3038SOL     OW19447   0.843   2.634   0.368
 3038SOL    HW119448   0.777   2.655   0.441
 3038SOL    HW219449   0.894   2.552   0.393
 3039SOL     OW19450   2.567   9.373   0.382
 3039SOL    HW119451   2.563   9.412   0.474
 3039SOL    HW219452   2.477   9.337   0.358
 3040SOL     OW19453   1.939   2.869   1.830
 3040SOL    HW119454   1.964   2.964   1.810
 3040SOL    HW219455   1.992   2.837   1.909
 3041SOL     OW19456   9.535   2.525   2.168
 3041SOL    HW119457   9.507   2.491   2.079
 3041SOL    HW219458   9.572   2.450   2.223
 3042SOL     OW19459   1.000   5.929   1.069
 3042SOL    HW119460   0.909   5.890   1.081
 3042SOL    HW219461   0.992   6.026   1.049
 3043SOL     OW19462   3.831   2.194   3.081
 3043SOL    HW119463   3.801   2.258   3.152
 3043SOL    HW219464   3.859   2.246   3.000
 3044SOL     OW19465   9.831   0.977   0.832
 3044SOL    HW119466   9.896   1.023   0.893
 3044SOL    HW219467   9.739   1.012   0.848
 3045SOL     OW19468   4.381   8.961   2.639
 3045SOL    HW119469   4.375   9.033   2.570
 3045SOL    HW219470   4.300   8.903   2.634
 3046SOL     OW19471   3.862   7.937   2.762
 3046SOL    HW119472   3.763   7.938   2.764
 3046SOL    HW219473   3.894   7.876   2.689
 3047SOL     OW19474   0.061   3.139   1.387
 3047SOL    HW119475   0.129   3.089   1.442
 3047SOL    HW219476   9.970   3.125   1.426
 3048SOL     OW19477   6.757   8.717   2.824
 3048SOL    HW119478   6.755   8.717   2.724
 3048SOL    HW219479   6.760   8.623   2.858
 3049SOL     OW19480   1.682   1.991   1.830
 3049SOL    HW119481   1.745   2.033   1.895
 3049SOL    HW219482   1.708   2.018   1.737
 3050SOL     OW19483   9.513   6.862   1.878
 3050SOL    HW119484   9.572   6.826   1.950
 3050SOL    HW219485   9.537   6.820   1.791
 3051SOL     OW19486   5.848   9.582   2.349
 3051SOL    HW119487   5.900   9.660   2.384
 3051SOL    HW219488   5.893   9.546   2.267
 3052SOL     OW19489   0.561   0.091   0.209
 3052SOL    HW119490   0.489   0.153   0.179
 3052SOL    HW219491   0.569   0.015   0.145
 3053SOL     OW19492   3.816   7.844   0.396
 3053SOL    HW119493   3.857   7.752   0.398
 3053SOL    HW219494   3.776   7.865   0.485
 3054SOL     OW19495   3.365   7.766   2.178
 3054SOL    HW119496   3.279   7.730   2.214
 3054SOL    HW219497   3.376   7.736   2.083
 3055SOL     OW19498   0.980   3.464   2.264
 3055SOL    HW119499   0.921   3.385   2.282
 3055SOL    HW219500   0.927   3.548   2.275
 3056SOL     OW19501   3.758   0.160   0.171
 3056SOL    HW119502   3.806   0.087   0.123
 3056SOL    HW219503   3.790   0.166   0.265
 3057SOL     OW19504   1.849   5.308   2.829
 3057SOL    HW119505   1.927   5.246   2.818
 3057SOL    HW219506   1.881   5.395   2.866
 3058SOL     OW19507   1.431   8.521   2.116
 3058SOL    HW119508   1.515   8.505   2.064
 3058SOL    HW219509   1.454   8.545   2.210
 3059SOL     OW19510   3.341   7.320   2.745
 3059SOL    HW119511   3.307   7.330   2.839
 3059SOL    HW219512   3.291   7.383   2.685
 3060SOL     OW19513   2.093   0.992   1.709
 3060SOL    HW119514   2.051   1.058   1.647
 3060SOL    HW219515   2.123   1.038   1.792
 3061SOL     OW19516   8.796   5.780   1.369
 3061SOL    HW119517   8.856   5.857   1.392
 3061SOL    HW219518   8.730   5.767   1.444
 3062SOL     OW19519   0.971   2.610   1.114
 3062SOL    HW119520   1.067   2.599   1.089
 3062SOL    HW219521   0.931   2.685   1.062
 3063SOL     OW19522   4.261   3.043   1.507
 3063SOL    HW119523   4.264   2.984   1.588
 3063SOL    HW219524   4.245   3.137   1.535
 3064SOL     OW19525   1.366   4.968   0.609
 3064SOL    HW119526   1.267   4.966   0.601
 3064SOL    HW219527   1.394   4.923   0.694
 3065SOL     OW19528   4.388   0.640   0.193
 3065SOL    HW119529   4.387   0.559   0.252
 3065SOL    HW219530   4.475   0.688   0.203
 3066SOL     OW19531   5.319   7.681   3.063
 3066SOL    HW119532   5.318   7.609   2.994
 3066SOL    HW219533   5.237   7.738   3.053
 3067SOL     OW19534   1.035   2.382   3.117
 3067SOL    HW119535   1.021   2.368   3.215
 3067SOL    HW219536   1.059   2.295   3.074
 3068SOL     OW19537   1.998   5.647   1.938
 3068SOL    HW119538   1.906   5.632   1.974
 3068SOL    HW219539   2.045   5.559   1.932
 3069SOL     OW19540   1.981   9.518   0.559
 3069SOL    HW119541   1.886   9.497   0.535
 3069SOL    HW219542   2.022   9.439   0.605
 3070SOL     OW19543   0.638   6.655   2.130
 3070SOL    HW119544   0.565   6.699   2.183
 3070SOL    HW219545   0.636   6.557   2.147
 3071SOL     OW19546   3.220   9.191   0.179
 3071SOL    HW119547   3.319   9.200   0.191
 3071SOL    HW219548   3.201   9.115   0.117
 3072SOL     OW19549   1.785   6.043   1.468
 3072SOL    HW119550   1.742   5.996   1.390
 3072SOL    HW219551   1.830   6.126   1.435
 3073SOL     OW19552   3.297   2.565   2.818
 3073SOL    HW119553   3.356   2.508   2.875
 3073SOL    HW219554   3.202   2.545   2.839
 3074SOL     OW19555   0.083   7.097   0.804
 3074SOL    HW119556   0.041   7.033   0.739
 3074SOL    HW219557   0.015   7.164   0.834
 3075SOL     OW19558   3.372   2.037   2.027
 3075SOL    HW119559   3.438   1.983   1.974
 3075SOL    HW219560   3.323   1.978   2.091
 3076SOL     OW19561   1.510   0.958   1.254
 3076SOL    HW119562   1.483   0.929   1.162
 3076SOL    HW219563   1.594   0.911   1.281
 3077SOL     OW19564   0.047   2.831   0.949
 3077SOL    HW119565   9.956   2.833   0.989
 3077SOL    HW219566   0.050   2.766   0.873
 3078SOL     OW19567   2.261   8.359   1.228
 3078SOL    HW119568   2.311   8.280   1.262
 3078SOL    HW219569   2.310   8.399   1.151
 3079SOL     OW19570   7.923   8.308   2.169
 3079SOL    HW119571   7.918   8.406   2.188
 3079SOL    HW219572   7.848   8.282   2.109
 3080SOL     OW19573   0.127   7.288   2.742
 3080SOL    HW119574   0.209   7.232   2.752
 3080SOL    HW219575   0.055   7.235   2.697
 3081SOL     OW19576   4.438   6.450   2.973
 3081SOL    HW119577   4.419   6.401   3.058
 3081SOL    HW219578   4.365   6.516   2.956
 3082SOL     OW19579   0.127   3.604   0.332
 3082SOL    HW119580   0.065   3.572   0.404
 3082SOL    HW219581   0.128   3.704   0.331
 3083SOL     OW19582   1.456   4.422   0.258
 3083SOL    HW119583   1.460   4.390   0.353
 3083SOL    HW219584   1.484   4.349   0.197
 3084SOL     OW19585   3.543   5.285   2.676
 3084SOL    HW119586   3.515   5.381   2.674
 3084SOL    HW219587   3.462   5.226   2.682
 3085SOL     OW19588   9.090   4.290   0.258
 3085SOL    HW119589   9.000   4.332   0.261
 3085SOL    HW219590   9.099   4.235   0.175
 3086SOL     OW19591   1.589   5.825   1.999
 3086SOL    HW119592   1.668   5.882   2.021
 3086SOL    HW219593   1.530   5.874   1.935
 3087SOL     OW19594   8.472   3.282   2.654
 3087SOL    HW119595   8.439   3.247   2.741
 3087SOL    HW219596   8.570   3.262   2.645
 3088SOL     OW19597   8.805   1.680   2.167
 3088SOL    HW119598   8.738   1.731   2.221
 3088SOL    HW219599   8.836   1.736   2.090
 3089SOL     OW19600   8.270   5.729   2.806
 3089SOL    HW119601   8.247   5.652   2.865
 3089SOL    HW219602   8.185   5.774   2.777
 3090SOL     OW19603   1.963   8.082   0.359
 3090SOL    HW119604   2.040   8.126   0.406
 3090SOL    HW219605   1.896   8.051   0.426
 3091SOL     OW19606   2.675   1.482   1.250
 3091SOL    HW119607   2.652   1.397   1.201
 3091SOL    HW219608   2.770   1.478   1.280
 3092SOL     OW19609   8.270   7.057   1.388
 3092SOL    HW119610   8.249   7.056   1.485
 3092SOL    HW219611   8.315   7.144   1.365
 3093SOL     OW19612   8.714   8.083   2.868
 3093SOL    HW119613   8.709   8.107   2.771
 3093SOL    HW219614   8.625   8.050   2.899
 3094SOL     OW19615   4.385   4.336   1.630
 3094SOL    HW119616   4.456   4.407   1.620
 3094SOL    HW219617   4.300   4.378   1.662
 3095SOL     OW19618   2.653   3.856   2.063
 3095SOL    HW119619   2.560   3.821   2.061
 3095SOL    HW219620   2.715   3.790   2.021
 3096SOL     OW19621   9.897   8.681   0.781
 3096SOL    HW119622   9.819   8.676   0.718
 3096SOL    HW219623   9.876   8.629   0.864
 3097SOL     OW19624   1.804   6.094   3.091
 3097SOL    HW119625   1.888   6.107   3.038
 3097SOL    HW219626   1.823   6.035   3.169
 3098SOL     OW19627   1.425   4.641   2.641
 3098SOL    HW119628   1.444   4.542   2.644
 3098SOL    HW219629   1.334   4.656   2.603
 3099SOL     OW19630   1.376   0.115   2.787
 3099SOL    HW119631   1.425   0.122   2.700
 3099SOL    HW219632   1.441   0.125   2.862
 3100SOL     OW19633   8.656   8.774   2.458
 3100SOL    HW119634   8.574   8.789   2.403
 3100SOL    HW219635   8.629   8.740   2.548
 3101SOL     OW19636   8.090   0.240   1.379
 3101SOL    HW119637   8.104   0.274   1.286
 3101SOL    HW219638   8.131   0.305   1.444
 3102SOL     OW19639   8.016   9.975   1.858
 3102SOL    HW119640   8.006   0.073   1.873
 3102SOL    HW219641   8.091   9.939   1.913
 3103SOL     OW19642   9.560   2.107   1.852
 3103SOL    HW119643   9.549   2.136   1.947
 3103SOL    HW219644   9.470   2.096   1.810
 3104SOL     OW19645   0.052   7.425   0.502
 3104SOL    HW119646   0.141   7.447   0.542
 3104SOL    HW219647   9.979   7.453   0.566
 3105SOL     OW19648   6.910   8.560   2.107
 3105SOL    HW119649   6.832   8.552   2.169
 3105SOL    HW219650   6.993   8.576   2.160
 3106SOL     OW19651   9.934   7.183   0.441
 3106SOL    HW119652   9.855   7.210   0.385
 3106SOL    HW219653   9.986   7.265   0.467
 3107SOL     OW19654   7.070   8.202   2.228
 3107SOL    HW119655   7.125   8.247   2.158
 3107SOL    HW219656   7.123   8.129   2.271
 3108SOL     OW19657   9.096   2.380   0.176
 3108SOL    HW119658   9.106   2.407   0.271
 3108SOL    HW219659   9.144   2.445   0.117
 3109SOL     OW19660   8.689   1.517   2.963
 3109SOL    HW119661   8.688   1.417   2.968
 3109SOL    HW219662   8.771   1.552   3.009
 3110SOL     OW19663   1.842   8.749   0.514
 3110SOL    HW119664   1.760   8.693   0.504
 3110SOL    HW219665   1.909   8.699   0.569
 3111SOL     OW19666   3.707   0.911   1.748
 3111SOL    HW119667   3.715   0.880   1.843
 3111SOL    HW219668   3.717   0.832   1.687
 3112SOL     OW19669   3.174   4.807   0.868
 3112SOL    HW119670   3.108   4.857   0.813
 3112SOL    HW219671   3.184   4.850   0.957
 3113SOL     OW19672   9.686   4.633   2.777
 3113SOL    HW119673   9.636   4.552   2.809
 3113SOL    HW219674   9.704   4.624   2.679
 3114SOL     OW19675   4.188   2.261   2.940
 3114SOL    HW119676   4.150   2.249   3.032
 3114SOL    HW219677   4.263   2.327   2.944
 3115SOL     OW19678   7.995   9.062   3.030
 3115SOL    HW119679   8.010   9.089   3.125
 3115SOL    HW219680   7.899   9.038   3.017
 3116SOL     OW19681   0.015   7.877   2.904
 3116SOL    HW119682   0.014   7.875   2.804
 3116SOL    HW219683   9.998   7.785   2.940
 3117SOL     OW19684   0.539   3.396   0.864
 3117SOL    HW119685   0.565   3.479   0.914
 3117SOL    HW219686   0.537   3.319   0.927
 3118SOL     OW19687   0.787   5.817   3.156
 3118SOL    HW119688   0.744   5.766   3.081
 3118SOL    HW219689   0.859   5.875   3.120
 3119SOL     OW19690   2.339   3.877   0.251
 3119SOL    HW119691   2.413   3.818   0.218
 3119SOL    HW219692   2.360   3.908   0.343
 3120SOL     OW19693   1.567   8.704   2.807
 3120SOL    HW119694   1.657   8.693   2.763
 3120SOL    HW219695   1.553   8.801   2.829
 3121SOL     OW19696   0.425   6.719   2.284
 3121SOL    HW119697   0.399   6.628   2.315
 3121SOL    HW219698   0.444   6.777   2.364
 3122SOL     OW19699   6.977   9.447   2.085
 3122SOL    HW119700   7.056   9.391   2.061
 3122SOL    HW219701   6.912   9.447   2.009
 3123SOL     OW19702   1.262   6.431   1.659
 3123SOL    HW119703   1.332   6.492   1.698
 3123SOL    HW219704   1.245   6.356   1.722
 3124SOL     OW19705   8.568   1.777   1.060
 3124SOL    HW119706   8.627   1.711   1.108
 3124SOL    HW219707   8.485   1.731   1.029
 3125SOL     OW19708   9.678   6.201   1.026
 3125SOL    HW119709   9.669   6.154   0.939
 3125SOL    HW219710   9.683   6.300   1.011
 3126SOL     OW19711   7.706   3.093   0.424
 3126SOL    HW119712   7.650   3.124   0.347
 3126SOL    HW219713   7.671   3.131   0.509
 3127SOL     OW19714   2.784   1.895   2.192
 3127SOL    HW119715   2.687   1.888   2.165
 3127SOL    HW219716   2.793   1.876   2.290
 3128SOL     OW19717   8.158   9.532   3.022
 3128SOL    HW119718   8.234   9.595   3.041
 3128SOL    HW219719   8.175   9.485   2.936
 3129SOL     OW19720   5.779   8.230   2.143
 3129SOL    HW119721   5.705   8.204   2.205
 3129SOL    HW219722   5.741   8.257   2.054
 3130SOL     OW19723   3.603   8.748   1.146
 3130SOL    HW119724   3.654   8.666   1.173
 3130SOL    HW219725   3.511   8.723   1.119
 3131SOL     OW19726   8.694   6.735   0.297
 3131SOL    HW119727   8.760   6.808   0.277
 3131SOL    HW219728   8.603   6.774   0.306
 3132SOL     OW19729   3.483   9.732   2.276
 3132SOL    HW119730   3.497   9.657   2.212
 3132SOL    HW219731   3.567   9.746   2.329
 3133SOL     OW19732   1.247   5.648   2.979
 3133SOL    HW119733   1.249   5.713   3.056
 3133SOL    HW219734   1.339   5.611   2.965
 3134SOL     OW19735   9.993   9.034   1.951
 3134SOL    HW119736   9.894   9.030   1.961
 3134SOL    HW219737   0.023   9.130   1.954
 3135SOL     OW19738   8.669   5.122   0.776
 3135SOL    HW119739   8.761   5.096   0.803
 3135SOL    HW219740   8.660   5.222   0.779
 3136SOL     OW19741   1.888   3.175   0.560
 3136SOL    HW119742   1.919   3.250   0.502
 3136SOL    HW219743   1.802   3.139   0.525
 3137SOL     OW19744   4.952   2.352   1.297
 3137SOL    HW119745   4.997   2.442   1.297
 3137SOL    HW219746   4.855   2.363   1.319
 3138SOL     OW19747   2.612   3.854   0.911
 3138SOL    HW119748   2.549   3.847   0.988
 3138SOL    HW219749   2.704   3.875   0.944
 3139SOL     OW19750   4.646   7.789   3.049
 3139SOL    HW119751   4.687   7.738   3.124
 3139SOL    HW219752   4.628   7.726   2.973
 3140SOL     OW19753   7.049   8.335   2.472
 3140SOL    HW119754   7.127   8.306   2.528
 3140SOL    HW219755   7.055   8.291   2.382
 3141SOL     OW19756   1.179   5.440   0.288
 3141SOL    HW119757   1.223   5.358   0.253
 3141SOL    HW219758   1.169   5.507   0.214
 3142SOL     OW19759   1.255   8.503   1.452
 3142SOL    HW119760   1.198   8.470   1.528
 3142SOL    HW219761   1.198   8.519   1.372
 3143SOL     OW19762   0.419   4.729   0.451
 3143SOL    HW119763   0.444   4.812   0.401
 3143SOL    HW219764   0.502   4.684   0.483
 3144SOL     OW19765   9.944   0.343   0.954
 3144SOL    HW119766   0.015   0.278   0.929
 3144SOL    HW219767   9.975   0.436   0.934
 3145SOL     OW19768   0.226   1.760   0.204
 3145SOL    HW119769   0.317   1.760   0.245
 3145SOL    HW219770   0.203   1.667   0.175
 3146SOL     OW19771   3.075   8.616   3.073
 3146SOL    HW119772   3.152   8.670   3.040
 3146SOL    HW219773   3.085   8.521   3.045
 3147SOL     OW19774   3.575   1.937   2.881
 3147SOL    HW119775   3.599   2.026   2.842
 3147SOL    HW219776   3.479   1.938   2.908
 3148SOL     OW19777   2.619   8.927   0.916
 3148SOL    HW119778   2.679   8.945   0.838
 3148SOL    HW219779   2.668   8.874   0.984
 3149SOL     OW19780   3.466   8.295   0.998
 3149SOL    HW119781   3.425   8.223   0.943
 3149SOL    HW219782   3.446   8.384   0.957
 3150SOL     OW19783   2.460   0.358   1.699
 3150SOL    HW119784   2.479   0.333   1.604
 3150SOL    HW219785   2.517   0.436   1.726
 3151SOL     OW19786   1.046   3.096   2.317
 3151SOL    HW119787   1.016   3.001   2.302
 3151SOL    HW219788   0.966   3.155   2.325
 3152SOL     OW19789   2.100   8.011   2.371
 3152SOL    HW119790   2.104   7.982   2.466
 3152SOL    HW219791   2.180   8.068   2.350
 3153SOL     OW19792   2.874   0.583   0.765
 3153SOL    HW119793   2.962   0.605   0.807
 3153SOL    HW219794   2.867   0.630   0.677
 3154SOL     OW19795   9.456   7.579   0.181
 3154SOL    HW119796   9.477   7.500   0.237
 3154SOL    HW219797   9.451   7.551   0.085
 3155SOL     OW19798   8.116   6.744   2.828
 3155SOL    HW119799   8.154   6.696   2.907
 3155SOL    HW219800   8.051   6.813   2.859
 3156SOL     OW19801   4.077   0.328   2.950
 3156SOL    HW119802   4.166   0.356   2.985
 3156SOL    HW219803   4.071   0.228   2.952
 3157SOL     OW19804   2.503   9.683   2.226
 3157SOL    HW119805   2.596   9.686   2.263
 3157SOL    HW219806   2.456   9.602   2.260
 3158SOL     OW19807   1.035   1.627   1.268
 3158SOL    HW119808   0.950   1.633   1.320
 3158SOL    HW219809   1.054   1.716   1.227
 3159SOL     OW19810   2.241   3.686   2.494
 3159SOL    HW119811   2.160   3.638   2.528
 3159SOL    HW219812   2.256   3.660   2.398
 3160SOL     OW19813   8.072   3.017   1.275
 3160SOL    HW119814   8.005   2.947   1.302
 3160SOL    HW219815   8.134   2.979   1.207
 3161SOL     OW19816   3.761   1.740   0.946
 3161SOL    HW119817   3.795   1.745   1.040
 3161SOL    HW219818   3.828   1.781   0.884
 3162SOL     OW19819   9.084   7.815   2.841
 3162SOL    HW119820   9.140   7.738   2.811
 3162SOL    HW219821   9.029   7.788   2.920
 3163SOL     OW19822   8.269   4.387   1.387
 3163SOL    HW119823   8.233   4.467   1.340
 3163SOL    HW219824   8.207   4.361   1.462
 3164SOL     OW19825   3.175   0.001   1.650
 3164SOL    HW119826   3.243   0.054   1.701
 3164SOL    HW219827   3.086   0.046   1.657
 3165SOL     OW19828   8.562   8.942   2.069
 3165SOL    HW119829   8.658   8.962   2.051
 3165SOL    HW219830   8.528   8.878   2.000
 3166SOL     OW19831   6.720   9.575   2.833
 3166SOL    HW119832   6.668   9.658   2.851
 3166SOL    HW219833   6.681   9.499   2.884
 3167SOL     OW19834   1.787   0.207   0.055
 3167SOL    HW119835   1.821   0.300   0.067
 3167SOL    HW219836   1.853   0.142   0.094
 3168SOL     OW19837   1.233   9.050   0.800
 3168SOL    HW119838   1.331   9.073   0.797
 3168SOL    HW219839   1.197   9.048   0.707
 3169SOL     OW19840   1.874   8.608   1.388
 3169SOL    HW119841   1.973   8.604   1.398
 3169SOL    HW219842   1.832   8.614   1.479
 3170SOL     OW19843   6.584   9.800   2.916
 3170SOL    HW119844   6.512   9.772   2.980
 3170SOL    HW219845   6.559   9.887   2.873
 3171SOL     OW19846   8.647   0.142   2.738
 3171SOL    HW119847   8.715   0.091   2.685
 3171SOL    HW219848   8.651   0.239   2.714
 3172SOL     OW19849   5.571   8.133   2.293
 3172SOL    HW119850   5.572   8.122   2.392
 3172SOL    HW219851   5.573   8.043   2.249
 3173SOL     OW19852   4.434   8.540   0.610
 3173SOL    HW119853   4.454   8.513   0.704
 3173SOL    HW219854   4.419   8.459   0.554
 3174SOL     OW19855   9.583   8.063   2.381
 3174SOL    HW119856   9.630   8.014   2.307
 3174SOL    HW219857   9.487   8.076   2.357
 3175SOL     OW19858   8.378   0.988   0.954
 3175SOL    HW119859   8.456   1.022   0.901
 3175SOL    HW219860   8.301   1.049   0.941
 3176SOL     OW19861   3.696   9.118   2.188
 3176SOL    HW119862   3.679   9.144   2.094
 3176SOL    HW219863   3.702   9.018   2.194
 3177SOL     OW19864   8.846   5.558   2.495
 3177SOL    HW119865   8.794   5.578   2.412
 3177SOL    HW219866   8.935   5.603   2.491
 3178SOL     OW19867   1.163   9.178   1.801
 3178SOL    HW119868   1.114   9.091   1.809
 3178SOL    HW219869   1.106   9.244   1.752
 3179SOL     OW19870   2.827   2.926   0.402
 3179SOL    HW119871   2.867   2.894   0.488
 3179SOL    HW219872   2.840   2.856   0.331
 3180SOL     OW19873   8.629   5.726   1.595
 3180SOL    HW119874   8.687   5.707   1.674
 3180SOL    HW219875   8.546   5.773   1.625
 3181SOL     OW19876   1.807   4.343   0.716
 3181SOL    HW119877   1.792   4.436   0.681
 3181SOL    HW219878   1.905   4.324   0.719
 3182SOL     OW19879   9.516   2.157   2.123
 3182SOL    HW119880   9.557   2.212   2.195
 3182SOL    HW219881   9.529   2.060   2.144
 3183SOL     OW19882   9.015   9.728   0.270
 3183SOL    HW119883   9.003   9.746   0.172
 3183SOL    HW219884   8.926   9.717   0.314
 3184SOL     OW19885   3.535   8.400   0.660
 3184SOL    HW119886   3.632   8.379   0.654
 3184SOL    HW219887   3.517   8.452   0.744
 3185SOL     OW19888   9.130   4.386   0.888
 3185SOL    HW119889   9.041   4.382   0.844
 3185SOL    HW219890   9.192   4.321   0.845
 3186SOL     OW19891   0.226   8.979   0.558
 3186SOL    HW119892   0.326   8.978   0.552
 3186SOL    HW219893   0.188   8.897   0.515
 3187SOL     OW19894   4.541   7.667   2.016
 3187SOL    HW119895   4.579   7.690   2.106
 3187SOL    HW219896   4.457   7.614   2.027
 3188SOL     OW19897   0.905   5.145   2.006
 3188SOL    HW119898   0.984   5.200   2.033
 3188SOL    HW219899   0.937   5.060   1.964
 3189SOL     OW19900   0.068   6.519   1.700
 3189SOL    HW119901   0.020   6.607   1.690
 3189SOL    HW219902   0.068   6.470   1.613
 3190SOL     OW19903   2.128   1.694   2.525
 3190SOL    HW119904   2.031   1.716   2.531
 3190SOL    HW219905   2.163   1.673   2.617
 3191SOL     OW19906   9.142   0.883   0.716
 3191SOL    HW119907   9.076   0.809   0.706
 3191SOL    HW219908   9.140   0.939   0.633
 3192SOL     OW19909   3.971   0.708   0.310
 3192SOL    HW119910   3.902   0.780   0.304
 3192SOL    HW219911   4.052   0.745   0.356
 3193SOL     OW19912   3.960   4.086   0.561
 3193SOL    HW119913   4.021   4.106   0.485
 3193SOL    HW219914   3.955   4.165   0.622
 3194SOL     OW19915   2.738   4.719   1.263
 3194SOL    HW119916   2.704   4.626   1.277
 3194SOL    HW219917   2.664   4.784   1.272
 3195SOL     OW19918   8.103   2.207   1.780
 3195SOL    HW119919   8.105   2.156   1.866
 3195SOL    HW219920   8.039   2.283   1.788
 3196SOL     OW19921   8.513   9.708   1.744
 3196SOL    HW119922   8.474   9.620   1.716
 3196SOL    HW219923   8.560   9.749   1.665
 3197SOL     OW19924   8.725   0.825   2.312
 3197SOL    HW119925   8.729   0.728   2.289
 3197SOL    HW219926   8.788   0.845   2.387
 3198SOL     OW19927   0.670   1.829   0.905
 3198SOL    HW119928   0.676   1.835   0.805
 3198SOL    HW219929   0.713   1.744   0.935
 3199SOL     OW19930   1.591   1.744   1.732
 3199SOL    HW119931   1.613   1.834   1.767
 3199SOL    HW219932   1.514   1.750   1.668
 3200SOL     OW19933   9.129   0.397   2.753
 3200SOL    HW119934   9.072   0.411   2.673
 3200SOL    HW219935   9.150   0.486   2.794
 3201SOL     OW19936   4.557   8.745   2.670
 3201SOL    HW119937   4.518   8.682   2.738
 3201SOL    HW219938   4.493   8.821   2.655
 3202SOL     OW19939   0.729   0.285   1.493
 3202SOL    HW119940   0.731   0.218   1.567
 3202SOL    HW219941   0.641   0.333   1.493
 3203SOL     OW19942   3.616   7.953   3.055
 3203SOL    HW119943   3.707   7.924   3.085
 3203SOL    HW219944   3.611   7.950   2.955
 3204SOL     OW19945   0.763   4.416   1.848
 3204SOL    HW119946   0.694   4.486   1.829
 3204SOL    HW219947   0.749   4.338   1.786
 3205SOL     OW19948   0.025   2.765   0.075
 3205SOL    HW119949   0.089   2.832   0.035
 3205SOL    HW219950   0.075   2.682   0.100
 3206SOL     OW19951   8.893   4.868   0.298
 3206SOL    HW119952   8.956   4.938   0.266
 3206SOL    HW219953   8.940   4.806   0.361
 3207SOL     OW19954   8.282   7.048   0.395
 3207SOL    HW119955   8.323   7.139   0.391
 3207SOL    HW219956   8.352   6.980   0.371
 3208SOL     OW19957   2.993   0.315   1.879
 3208SOL    HW119958   2.975   0.239   1.941
 3208SOL    HW219959   3.029   0.393   1.932
 3209SOL     OW19960   9.271   7.863   2.258
 3209SOL    HW119961   9.281   7.960   2.278
 3209SOL    HW219962   9.178   7.845   2.224
 3210SOL     OW19963   4.915   8.555   2.689
 3210SOL    HW119964   4.897   8.457   2.680
 3210SOL    HW219965   4.909   8.581   2.786
 3211SOL     OW19966   3.057   4.987   2.844
 3211SOL    HW119967   3.023   4.896   2.822
 3211SOL    HW219968   3.077   4.992   2.942
 3212SOL     OW19969   3.013   5.747   0.671
 3212SOL    HW119970   3.077   5.682   0.629
 3212SOL    HW219971   2.979   5.708   0.757
 3213SOL     OW19972   0.753   1.644   0.221
 3213SOL    HW119973   0.809   1.639   0.303
 3213SOL    HW219974   0.803   1.603   0.144
 3214SOL     OW19975   3.686   1.534   0.700
 3214SOL    HW119976   3.646   1.601   0.637
 3214SOL    HW219977   3.778   1.562   0.725
 3215SOL     OW19978   8.266   4.935   2.377
 3215SOL    HW119979   8.324   4.867   2.422
 3215SOL    HW219980   8.260   4.914   2.279
 3216SOL     OW19981   8.189   6.585   3.045
 3216SOL    HW119982   8.101   6.583   3.092
 3216SOL    HW219983   8.196   6.506   2.984
 3217SOL     OW19984   0.624   0.211   2.152
 3217SOL    HW119985   0.645   0.306   2.132
 3217SOL    HW219986   0.704   0.154   2.130
 3218SOL     OW19987   2.736   8.013   0.714
 3218SOL    HW119988   2.649   7.963   0.716
 3218SOL    HW219989   2.730   8.092   0.775
 3219SOL     OW19990   7.648   0.240   2.776
 3219SOL    HW119991   7.714   0.303   2.816
 3219SOL    HW219992   7.607   0.281   2.694
 3220SOL     OW19993   2.100   1.548   1.143
 3220SOL    HW119994   2.142   1.630   1.105
 3220SOL    HW219995   2.114   1.471   1.081
 3221SOL     OW19996   9.219   0.383   3.089
 3221SOL    HW119997   9.174   0.379   3.179
 3221SOL    HW219998   9.175   0.317   3.028
 3222SOL     OW19999   0.437   8.539   2.222
 3222SOL    HW120000   0.441   8.453   2.171
 3222SOL    HW220001   0.495   8.534   2.303
 3223SOL     OW20002   9.835   7.260   1.355
 3223SOL    HW120003   9.803   7.247   1.261
 3223SOL    HW220004   9.862   7.172   1.393
 3224SOL     OW20005   1.847   0.028   1.000
 3224SOL    HW120006   1.927   9.969   1.001
 3224SOL    HW220007   1.769   9.981   1.040
 3225SOL     OW20008   8.362   2.299   1.415
 3225SOL    HW120009   8.273   2.342   1.405
 3225SOL    HW220010   8.421   2.325   1.338
 3226SOL     OW20011   8.873   7.922   0.713
 3226SOL    HW120012   8.925   7.843   0.745
 3226SOL    HW220013   8.899   7.942   0.618
 3227SOL     OW20014   7.851   6.377   0.227
 3227SOL    HW120015   7.883   6.471   0.221
 3227SOL    HW220016   7.762   6.368   0.181
 3228SOL     OW20017   1.400   0.090   1.600
 3228SOL    HW120018   1.463   0.050   1.666
 3228SOL    HW220019   1.429   0.183   1.577
 3229SOL     OW20020   4.274   1.888   2.623
 3229SOL    HW120021   4.286   1.819   2.694
 3229SOL    HW220022   4.235   1.971   2.662
 3230SOL     OW20023   1.096   2.145   2.735
 3230SOL    HW120024   1.142   2.222   2.692
 3230SOL    HW220025   1.003   2.138   2.699
 3231SOL     OW20026   0.814   3.218   1.101
 3231SOL    HW120027   0.830   3.316   1.104
 3231SOL    HW220028   0.718   3.200   1.080
 3232SOL     OW20029   2.095   9.314   0.699
 3232SOL    HW120030   2.020   9.294   0.761
 3232SOL    HW220031   2.173   9.351   0.750
 3233SOL     OW20032   2.928   2.803   0.628
 3233SOL    HW120033   2.878   2.830   0.711
 3233SOL    HW220034   3.026   2.803   0.646
 3234SOL     OW20035   5.599   8.764   2.534
 3234SOL    HW120036   5.598   8.843   2.472
 3234SOL    HW220037   5.605   8.680   2.481
 3235SOL     OW20038   9.254   1.725   2.656
 3235SOL    HW120039   9.185   1.670   2.702
 3235SOL    HW220040   9.345   1.688   2.677
 3236SOL     OW20041   1.798   5.130   3.161
 3236SOL    HW120042   1.722   5.150   3.223
 3236SOL    HW220043   1.763   5.110   3.070
 3237SOL     OW20044   8.885   7.732   2.383
 3237SOL    HW120045   8.942   7.748   2.302
 3237SOL    HW220046   8.857   7.636   2.386
 3238SOL     OW20047   7.931   9.630   2.915
 3238SOL    HW120048   7.960   9.701   2.850
 3238SOL    HW220049   8.010   9.595   2.964
 3239SOL     OW20050   2.997   2.554   0.055
 3239SOL    HW120051   3.092   2.583   0.041
 3239SOL    HW220052   2.995   2.456   0.073
 3240SOL     OW20053   9.836   8.474   1.787
 3240SOL    HW120054   9.841   8.477   1.887
 3240SOL    HW220055   9.771   8.543   1.755
 3241SOL     OW20056   1.114   4.686   3.006
 3241SOL    HW120057   1.095   4.609   2.945
 3241SOL    HW220058   1.196   4.666   3.059
 3242SOL     OW20059   9.848   7.365   2.582
 3242SOL    HW120060   9.893   7.276   2.590
 3242SOL    HW220061   9.760   7.362   2.629
 3243SOL     OW20062   9.075   0.358   2.172
 3243SOL    HW120063   9.122   0.307   2.244
 3243SOL    HW220064   9.079   0.456   2.193
 3244SOL     OW20065   8.095   8.438   2.824
 3244SOL    HW120066   8.132   8.384   2.748
 3244SOL    HW220067   8.162   8.442   2.898
 3245SOL     OW20068   8.439   4.781   1.372
 3245SOL    HW120069   8.525   4.778   1.424
 3245SOL    HW220070   8.442   4.858   1.308
 3246SOL     OW20071   4.737   2.617   2.303
 3246SOL    HW120072   4.753   2.607   2.205
 3246SOL    HW220073   4.694   2.534   2.339
 3247SOL     OW20074   2.262   2.877   2.360
 3247SOL    HW120075   2.246   2.840   2.452
 3247SOL    HW220076   2.273   2.801   2.295
 3248SOL     OW20077   9.117   6.694   2.799
 3248SOL    HW120078   9.025   6.730   2.787
 3248SOL    HW220079   9.181   6.770   2.812
 3249SOL     OW20080   9.515   9.428   1.323
 3249SOL    HW120081   9.442   9.373   1.362
 3249SOL    HW220082   9.494   9.525   1.334
 3250SOL     OW20083   1.395   5.450   1.394
 3250SOL    HW120084   1.455   5.420   1.319
 3250SOL    HW220085   1.432   5.416   1.480
 3251SOL     OW20086   6.076   7.468   2.680
 3251SOL    HW120087   6.123   7.524   2.611
 3251SOL    HW220088   6.106   7.373   2.673
 3252SOL     OW20089   8.306   6.747   1.911
 3252SOL    HW120090   8.320   6.697   1.825
 3252SOL    HW220091   8.209   6.749   1.933
 3253SOL     OW20092   2.632   4.509   1.550
 3253SOL    HW120093   2.665   4.473   1.463
 3253SOL    HW220094   2.699   4.573   1.588
 3254SOL     OW20095   1.189   5.867   0.877
 3254SOL    HW120096   1.127   5.891   0.952
 3254SOL    HW220097   1.147   5.795   0.821
 3255SOL     OW20098   4.619   9.887   1.530
 3255SOL    HW120099   4.551   9.820   1.561
 3255SOL    HW220100   4.706   9.870   1.577
 3256SOL     OW20101   4.845   0.013   1.896
 3256SOL    HW120102   4.896   0.097   1.909
 3256SOL    HW220103   4.884   9.940   1.952
 3257SOL     OW20104   4.007   8.846   0.420
 3257SOL    HW120105   3.952   8.892   0.489
 3257SOL    HW220106   4.070   8.782   0.464
 3258SOL     OW20107   8.179   4.980   2.644
 3258SOL    HW120108   8.250   5.047   2.668
 3258SOL    HW220109   8.182   4.963   2.545
 3259SOL     OW20110   9.002   8.362   1.532
 3259SOL    HW120111   9.084   8.353   1.590
 3259SOL    HW220112   9.007   8.295   1.458
 3260SOL     OW20113   3.655   1.105   2.579
 3260SOL    HW120114   3.635   1.015   2.541
 3260SOL    HW220115   3.752   1.109   2.606
 3261SOL     OW20116   3.055   6.700   2.776
 3261SOL    HW120117   3.032   6.683   2.872
 3261SOL    HW220118   3.067   6.613   2.729
 3262SOL     OW20119   1.682   3.344   1.841
 3262SOL    HW120120   1.722   3.289   1.914
 3262SOL    HW220121   1.618   3.409   1.881
 3263SOL     OW20122   1.760   3.857   0.529
 3263SOL    HW120123   1.666   3.883   0.508
 3263SOL    HW220124   1.822   3.931   0.502
 3264SOL     OW20125   9.042   9.155   1.730
 3264SOL    HW120126   8.975   9.198   1.791
 3264SOL    HW220127   8.997   9.126   1.646
 3265SOL     OW20128   5.035   8.873   1.593
 3265SOL    HW120129   5.007   8.869   1.497
 3265SOL    HW220130   4.961   8.914   1.647
 3266SOL     OW20131   7.356   7.961   2.926
 3266SOL    HW120132   7.373   7.932   2.832
 3266SOL    HW220133   7.259   7.983   2.938
 3267SOL     OW20134   1.813   3.850   0.854
 3267SOL    HW120135   1.800   3.764   0.903
 3267SOL    HW220136   1.725   3.883   0.820
 3268SOL     OW20137   9.578   6.221   1.495
 3268SOL    HW120138   9.660   6.173   1.464
 3268SOL    HW220139   9.565   6.304   1.439
 3269SOL     OW20140   1.491   9.643   0.111
 3269SOL    HW120141   1.521   9.663   0.018
 3269SOL    HW220142   1.417   9.705   0.136
 3270SOL     OW20143   3.100   1.619   1.073
 3270SOL    HW120144   3.070   1.530   1.040
 3270SOL    HW220145   3.179   1.607   1.133
 3271SOL     OW20146   2.481   8.344   2.828
 3271SOL    HW120147   2.445   8.256   2.861
 3271SOL    HW220148   2.427   8.419   2.867
 3272SOL     OW20149   3.491   4.891   3.069
 3272SOL    HW120150   3.582   4.860   3.095
 3272SOL    HW220151   3.484   4.892   2.969
 3273SOL     OW20152   2.782   3.977   1.289
 3273SOL    HW120153   2.743   3.888   1.315
 3273SOL    HW220154   2.714   4.049   1.306
 3274SOL     OW20155   9.929   0.214   1.931
 3274SOL    HW120156   9.990   0.223   2.010
 3274SOL    HW220157   9.984   0.206   1.848
 3275SOL     OW20158   3.864   4.110   2.905
 3275SOL    HW120159   3.918   4.131   2.823
 3275SOL    HW220160   3.891   4.021   2.942
 3276SOL     OW20161   1.572   0.352   2.651
 3276SOL    HW120162   1.523   0.285   2.595
 3276SOL    HW220163   1.652   0.309   2.691
 3277SOL     OW20164   1.493   3.891   0.471
 3277SOL    HW120165   1.446   3.960   0.416
 3277SOL    HW220166   1.438   3.870   0.552
 3278SOL     OW20167   3.490   9.749   1.440
 3278SOL    HW120168   3.510   9.764   1.343
 3278SOL    HW220169   3.558   9.796   1.495
 3279SOL     OW20170   1.750   1.213   1.861
 3279SOL    HW120171   1.837   1.260   1.848
 3279SOL    HW220172   1.677   1.268   1.821
 3280SOL     OW20173   2.894   6.930   1.967
 3280SOL    HW120174   2.911   6.887   2.056
 3280SOL    HW220175   2.979   6.971   1.934
 3281SOL     OW20176   8.386   7.505   2.061
 3281SOL    HW120177   8.380   7.406   2.073
 3281SOL    HW220178   8.473   7.528   2.018
 3282SOL     OW20179   1.994   0.541   0.518
 3282SOL    HW120180   2.087   0.573   0.500
 3282SOL    HW220181   1.930   0.586   0.456
 3283SOL     OW20182   8.380   5.852   1.696
 3283SOL    HW120183   8.341   5.848   1.788
 3283SOL    HW220184   8.309   5.839   1.628
 3284SOL     OW20185   0.035   3.811   2.646
 3284SOL    HW120186   9.956   3.812   2.708
 3284SOL    HW220187   0.019   3.746   2.572
 3285SOL     OW20188   3.601   3.994   2.617
 3285SOL    HW120189   3.590   4.058   2.693
 3285SOL    HW220190   3.651   3.913   2.649
 3286SOL     OW20191   9.422   3.677   2.029
 3286SOL    HW120192   9.482   3.614   1.979
 3286SOL    HW220193   9.369   3.626   2.096
 3287SOL     OW20194   3.425   5.640   3.142
 3287SOL    HW120195   3.362   5.563   3.127
 3287SOL    HW220196   3.519   5.606   3.138
 3288SOL     OW20197   4.192   8.536   2.591
 3288SOL    HW120198   4.108   8.548   2.645
 3288SOL    HW220199   4.251   8.469   2.637
 3289SOL     OW20200   8.674   2.532   0.549
 3289SOL    HW120201   8.666   2.487   0.460
 3289SOL    HW220202   8.710   2.468   0.616
 3290SOL     OW20203   5.963   9.457   2.789
 3290SOL    HW120204   6.055   9.431   2.758
 3290SOL    HW220205   5.944   9.415   2.878
 3291SOL     OW20206   7.755   1.137   0.372
 3291SOL    HW120207   7.708   1.083   0.441
 3291SOL    HW220208   7.851   1.150   0.399
 3292SOL     OW20209   9.800   4.364   0.198
 3292SOL    HW120210   9.730   4.353   0.268
 3292SOL    HW220211   9.763   4.334   0.110
 3293SOL     OW20212   8.301   1.207   2.782
 3293SOL    HW120213   8.353   1.280   2.826
 3293SOL    HW220214   8.273   1.237   2.691
 3294SOL     OW20215   0.166   0.819   0.661
 3294SOL    HW120216   0.176   0.918   0.668
 3294SOL    HW220217   0.069   0.795   0.670
 3295SOL     OW20218   5.570   7.896   2.154
 3295SOL    HW120219   5.515   7.825   2.197
 3295SOL    HW220220   5.543   7.906   2.058
 3296SOL     OW20221   8.428   5.959   1.361
 3296SOL    HW120222   8.366   6.013   1.418
 3296SOL    HW220223   8.522   5.987   1.378
 3297SOL     OW20224   1.612   9.728   2.280
 3297SOL    HW120225   1.638   9.794   2.210
 3297SOL    HW220226   1.652   9.756   2.368
 3298SOL     OW20227   4.816   7.260   2.853
 3298SOL    HW120228   4.826   7.192   2.780
 3298SOL    HW220229   4.890   7.250   2.919
 3299SOL     OW20230   8.593   0.333   1.150
 3299SOL    HW120231   8.596   0.322   1.249
 3299SOL    HW220232   8.544   0.417   1.127
 3300SOL     OW20233   0.386   4.531   2.836
 3300SOL    HW120234   0.442   4.614   2.838
 3300SOL    HW220235   0.313   4.538   2.904
 3301SOL     OW20236   4.790   9.905   0.465
 3301SOL    HW120237   4.796   0.003   0.445
 3301SOL    HW220238   4.724   9.890   0.538
 3302SOL     OW20239   0.994   7.775   3.022
 3302SOL    HW120240   1.007   7.874   3.023
 3302SOL    HW220241   1.078   7.730   3.053
 3303SOL     OW20242   9.641   4.479   0.586
 3303SOL    HW120243   9.555   4.492   0.635
 3303SOL    HW220244   9.627   4.416   0.510
 3304SOL     OW20245   9.362   1.726   0.391
 3304SOL    HW120246   9.458   1.734   0.365
 3304SOL    HW220247   9.309   1.798   0.345
 3305SOL     OW20248   1.308   5.231   0.163
 3305SOL    HW120249   1.401   5.268   0.172
 3305SOL    HW220250   1.280   5.237   0.067
 3306SOL     OW20251   8.874   3.130   2.406
 3306SOL    HW120252   8.931   3.055   2.372
 3306SOL    HW220253   8.928   3.213   2.411
 3307SOL     OW20254   2.019   8.755   3.061
 3307SOL    HW120255   2.019   8.706   2.974
 3307SOL    HW220256   2.087   8.828   3.057
 3308SOL     OW20257   9.107   2.864   2.555
 3308SOL    HW120258   9.194   2.902   2.524
 3308SOL    HW220259   9.122   2.773   2.593
 3309SOL     OW20260   4.746   1.014   2.874
 3309SOL    HW120261   4.685   1.010   2.795
 3309SOL    HW220262   4.751   0.923   2.916
 3310SOL     OW20263   2.454   4.317   3.079
 3310SOL    HW120264   2.486   4.377   3.006
 3310SOL    HW220265   2.462   4.364   3.167
 3311SOL     OW20266   1.406   9.565   2.393
 3311SOL    HW120267   1.463   9.637   2.353
 3311SOL    HW220268   1.338   9.535   2.326
 3312SOL     OW20269   3.299   7.208   2.225
 3312SOL    HW120270   3.256   7.137   2.281
 3312SOL    HW220271   3.398   7.203   2.235
 3313SOL     OW20272   1.189   6.690   0.579
 3313SOL    HW120273   1.146   6.744   0.507
 3313SOL    HW220274   1.281   6.663   0.550
 3314SOL     OW20275   1.096   2.827   3.062
 3314SOL    HW120276   1.129   2.887   2.988
 3314SOL    HW220277   1.007   2.859   3.093
 3315SOL     OW20278   1.986   2.397   0.800
 3315SOL    HW120279   1.907   2.409   0.740
 3315SOL    HW220280   1.990   2.303   0.832
 3316SOL     OW20281   9.447   5.013   2.413
 3316SOL    HW120282   9.387   5.024   2.334
 3316SOL    HW220283   9.533   5.062   2.396
 3317SOL     OW20284   9.935   2.580   0.500
 3317SOL    HW120285   9.994   2.501   0.480
 3317SOL    HW220286   9.941   2.645   0.424
 3318SOL     OW20287   1.232   4.012   1.017
 3318SOL    HW120288   1.287   4.084   1.060
 3318SOL    HW220289   1.152   4.054   0.974
 3319SOL     OW20290   3.647   2.043   1.558
 3319SOL    HW120291   3.595   1.958   1.559
 3319SOL    HW220292   3.586   2.119   1.533
 3320SOL     OW20293   8.293   3.688   0.381
 3320SOL    HW120294   8.214   3.650   0.430
 3320SOL    HW220295   8.294   3.653   0.288
 3321SOL     OW20296   3.785   7.387   0.930
 3321SOL    HW120297   3.712   7.320   0.920
 3321SOL    HW220298   3.770   7.440   1.013
 3322SOL     OW20299   2.810   6.797   1.736
 3322SOL    HW120300   2.772   6.864   1.672
 3322SOL    HW220301   2.836   6.842   1.821
 3323SOL     OW20302   1.239   3.854   2.750
 3323SOL    HW120303   1.252   3.761   2.715
 3323SOL    HW220304   1.323   3.907   2.736
 3324SOL     OW20305   1.353   4.243   1.684
 3324SOL    HW120306   1.344   4.180   1.761
 3324SOL    HW220307   1.425   4.210   1.622
 3325SOL     OW20308   8.862   5.192   0.408
 3325SOL    HW120309   8.946   5.163   0.362
 3325SOL    HW220310   8.786   5.133   0.380
 3326SOL     OW20311   1.933   2.014   1.355
 3326SOL    HW120312   1.884   1.927   1.354
 3326SOL    HW220313   1.883   2.081   1.300
 3327SOL     OW20314   3.041   8.118   1.408
 3327SOL    HW120315   2.971   8.097   1.475
 3327SOL    HW220316   3.039   8.049   1.335
 3328SOL     OW20317   2.865   4.449   0.089
 3328SOL    HW120318   2.894   4.410   0.002
 3328SOL    HW220319   2.765   4.450   0.093
 3329SOL     OW20320   9.695   4.764   1.100
 3329SOL    HW120321   9.725   4.770   1.005
 3329SOL    HW220322   9.730   4.843   1.151
 3330SOL     OW20323   0.460   1.442   2.353
 3330SOL    HW120324   0.548   1.478   2.323
 3330SOL    HW220325   0.392   1.455   2.281
 3331SOL     OW20326   1.738   9.106   2.984
 3331SOL    HW120327   1.764   9.035   3.050
 3331SOL    HW220328   1.817   9.166   2.968
 3332SOL     OW20329   8.264   1.270   1.156
 3332SOL    HW120330   8.219   1.210   1.222
 3332SOL    HW220331   8.243   1.240   1.063
 3333SOL     OW20332   8.619   9.834   1.523
 3333SOL    HW120333   8.573   9.922   1.538
 3333SOL    HW220334   8.702   9.849   1.470
 3334SOL     OW20335   2.217   5.284   1.099
 3334SOL    HW120336   2.308   5.273   1.059
 3334SOL    HW220337   2.157   5.330   1.034
 3335SOL     OW20338   9.742   5.464   2.546
 3335SOL    HW120339   9.683   5.545   2.556
 3335SOL    HW220340   9.790   5.468   2.459
 3336SOL     OW20341   0.064   7.724   0.335
 3336SOL    HW120342   0.051   7.754   0.430
 3336SOL    HW220343   0.090   7.803   0.279
 3337SOL     OW20344   3.218   1.092   0.743
 3337SOL    HW120345   3.140   1.060   0.796
 3337SOL    HW220346   3.191   1.100   0.647
 3338SOL     OW20347   9.849   8.220   2.059
 3338SOL    HW120348   9.881   8.185   2.147
 3338SOL    HW220349   9.860   8.320   2.057
 3339SOL     OW20350   1.529   9.841   0.628
 3339SOL    HW120351   1.627   9.859   0.636
 3339SOL    HW220352   1.497   9.868   0.537
 3340SOL     OW20353   8.437   5.304   2.652
 3340SOL    HW120354   8.512   5.369   2.645
 3340SOL    HW220355   8.428   5.253   2.566
 3341SOL     OW20356   4.550   3.743   1.329
 3341SOL    HW120357   4.513   3.803   1.258
 3341SOL    HW220358   4.553   3.791   1.416
 3342SOL     OW20359   8.490   9.261   0.712
 3342SOL    HW120360   8.545   9.345   0.718
 3342SOL    HW220361   8.548   9.186   0.681
 3343SOL     OW20362   8.226   0.576   0.894
 3343SOL    HW120363   8.204   0.671   0.914
 3343SOL    HW220364   8.308   0.549   0.944
 3344SOL     OW20365   4.024   0.657   2.619
 3344SOL    HW120366   4.065   0.636   2.530
 3344SOL    HW220367   4.078   0.612   2.691
 3345SOL     OW20368   2.918   0.802   3.101
 3345SOL    HW120369   2.914   0.790   3.001
 3345SOL    HW220370   2.826   0.815   3.136
 3346SOL     OW20371   0.135   9.705   2.385
 3346SOL    HW120372   0.098   9.765   2.314
 3346SOL    HW220373   0.068   9.633   2.407
 3347SOL     OW20374   2.107   3.781   2.895
 3347SOL    HW120375   2.142   3.824   2.812
 3347SOL    HW220376   2.108   3.847   2.970
 3348SOL     OW20377   0.233   9.540   3.141
 3348SOL    HW120378   0.179   9.478   3.084
 3348SOL    HW220379   0.214   9.523   3.237
 3349SOL     OW20380   0.773   0.118   0.949
 3349SOL    HW120381   0.692   0.144   1.001
 3349SOL    HW220382   0.784   0.179   0.871
 3350SOL     OW20383   5.247   9.625   3.069
 3350SOL    HW120384   5.324   9.660   3.016
 3350SOL    HW220385   5.192   9.701   3.104
 3351SOL     OW20386   2.410   7.695   0.421
 3351SOL    HW120387   2.430   7.622   0.487
 3351SOL    HW220388   2.333   7.749   0.454
 3352SOL     OW20389   4.421   0.299   0.737
 3352SOL    HW120390   4.512   0.258   0.729
 3352SOL    HW220391   4.364   0.270   0.660
 3353SOL     OW20392   8.505   9.856   0.865
 3353SOL    HW120393   8.573   9.909   0.815
 3353SOL    HW220394   8.420   9.909   0.870
 3354SOL     OW20395   9.446   9.868   1.795
 3354SOL    HW120396   9.525   9.879   1.734
 3354SOL    HW220397   9.430   9.953   1.845
 3355SOL     OW20398   2.338   8.417   2.595
 3355SOL    HW120399   2.241   8.408   2.621
 3355SOL    HW220400   2.395   8.379   2.667
 3356SOL     OW20401   2.050   0.047   2.731
 3356SOL    HW120402   1.981   0.045   2.659
 3356SOL    HW220403   2.118   0.118   2.712
 3357SOL     OW20404   0.365   7.441   1.515
 3357SOL    HW120405   0.463   7.450   1.534
 3357SOL    HW220406   0.351   7.435   1.416
 3358SOL     OW20407   9.954   7.619   2.965
 3358SOL    HW120408   9.880   7.616   2.897
 3358SOL    HW220409   9.992   7.528   2.976
 3359SOL     OW20410   2.344   8.934   1.447
 3359SOL    HW120411   2.379   9.027   1.456
 3359SOL    HW220412   2.378   8.895   1.361
 3360SOL     OW20413   0.445   4.544   0.170
 3360SOL    HW120414   0.531   4.538   0.221
 3360SOL    HW220415   0.426   4.640   0.148
 3361SOL     OW20416   1.478   6.920   2.945
 3361SOL    HW120417   1.540   6.851   2.982
 3361SOL    HW220418   1.393   6.877   2.915
 3362SOL     OW20419   7.875   2.408   0.353
 3362SOL    HW120420   7.888   2.502   0.386
 3362SOL    HW220421   7.780   2.381   0.366
 3363SOL     OW20422   4.389   2.858   0.804
 3363SOL    HW120423   4.292   2.838   0.815
 3363SOL    HW220424   4.414   2.935   0.863
 3364SOL     OW20425   0.667   8.612   1.843
 3364SOL    HW120426   0.627   8.553   1.773
 3364SOL    HW220427   0.598   8.679   1.873
 3365SOL     OW20428   8.875   0.896   2.535
 3365SOL    HW120429   8.958   0.951   2.537
 3365SOL    HW220430   8.890   0.811   2.587
 3366SOL     OW20431   0.102   1.486   1.187
 3366SOL    HW120432   0.167   1.427   1.235
 3366SOL    HW220433   0.010   1.471   1.223
 3367SOL     OW20434   0.706   7.245   2.661
 3367SOL    HW120435   0.617   7.289   2.672
 3367SOL    HW220436   0.698   7.170   2.595
 3368SOL     OW20437   9.856   2.735   2.703
 3368SOL    HW120438   9.810   2.818   2.736
 3368SOL    HW220439   9.824   2.656   2.755
 3369SOL     OW20440   0.188   9.329   2.398
 3369SOL    HW120441   0.239   9.371   2.323
 3369SOL    HW220442   0.250   9.310   2.474
 3370SOL     OW20443   1.997   8.421   0.464
 3370SOL    HW120444   2.007   8.485   0.540
 3370SOL    HW220445   2.054   8.340   0.480
 3371SOL     OW20446   6.946   0.020   2.114
 3371SOL    HW120447   7.009   9.974   2.051
 3371SOL    HW220448   6.992   0.036   2.201
 3372SOL     OW20449   4.672   3.560   1.907
 3372SOL    HW120450   4.713   3.596   1.823
 3372SOL    HW220451   4.704   3.466   1.921
 3373SOL     OW20452   3.258   2.196   2.360
 3373SOL    HW120453   3.243   2.263   2.433
 3373SOL    HW220454   3.354   2.167   2.362
 3374SOL     OW20455   2.186   7.851   0.459
 3374SOL    HW120456   2.187   7.951   0.454
 3374SOL    HW220457   2.134   7.813   0.383
 3375SOL     OW20458   0.879   4.706   0.335
 3375SOL    HW120459   0.855   4.793   0.379
 3375SOL    HW220460   0.973   4.712   0.300
 3376SOL     OW20461   1.218   7.123   1.678
 3376SOL    HW120462   1.211   7.132   1.777
 3376SOL    HW220463   1.128   7.101   1.640
 3377SOL     OW20464   0.520   2.410   2.499
 3377SOL    HW120465   0.480   2.397   2.590
 3377SOL    HW220466   0.613   2.447   2.509
 3378SOL     OW20467   8.597   4.653   2.105
 3378SOL    HW120468   8.652   4.708   2.168
 3378SOL    HW220469   8.510   4.629   2.149
 3379SOL     OW20470   4.091   8.532   0.789
 3379SOL    HW120471   4.099   8.432   0.786
 3379SOL    HW220472   3.996   8.558   0.804
 3380SOL     OW20473   1.103   4.560   2.159
 3380SOL    HW120474   1.075   4.515   2.074
 3380SOL    HW220475   1.033   4.625   2.187
 3381SOL     OW20476   9.172   4.798   2.089
 3381SOL    HW120477   9.227   4.821   2.009
 3381SOL    HW220478   9.076   4.794   2.063
 3382SOL     OW20479   8.250   8.730   0.161
 3382SOL    HW120480   8.194   8.661   0.116
 3382SOL    HW220481   8.236   8.818   0.117
 3383SOL     OW20482   1.831   7.200   3.058
 3383SOL    HW120483   1.738   7.189   3.025
 3383SOL    HW220484   1.830   7.248   3.145
 3384SOL     OW20485   9.907   3.829   1.530
 3384SOL    HW120486   9.982   3.781   1.483
 3384SOL    HW220487   9.885   3.782   1.615
 3385SOL     OW20488   9.680   0.105   1.151
 3385SOL    HW120489   9.656   0.200   1.169
 3385SOL    HW220490   9.607   0.045   1.184
 3386SOL     OW20491   9.769   0.168   2.426
 3386SOL    HW120492   9.714   0.087   2.447
 3386SOL    HW220493   9.863   0.140   2.406
 3387SOL     OW20494   2.696   2.304   2.187
 3387SOL    HW120495   2.745   2.245   2.123
 3387SOL    HW220496   2.755   2.327   2.264
 3388SOL     OW20497   8.745   8.698   2.839
 3388SOL    HW120498   8.743   8.785   2.888
 3388SOL    HW220499   8.670   8.640   2.870
 3389SOL     OW20500   4.039   9.096   1.824
 3389SOL    HW120501   4.090   9.114   1.908
 3389SOL    HW220502   4.000   9.181   1.790
 3390SOL     OW20503   8.832   0.472   3.063
 3390SOL    HW120504   8.893   0.409   3.111
 3390SOL    HW220505   8.833   0.561   3.110
 3391SOL     OW20506   4.399   9.363   3.011
 3391SOL    HW120507   4.432   9.409   3.093
 3391SOL    HW220508   4.476   9.343   2.950
 3392SOL     OW20509   8.922   7.584   2.652
 3392SOL    HW120510   8.888   7.542   2.568
 3392SOL    HW220511   8.856   7.651   2.685
 3393SOL     OW20512   1.566   4.138   2.282
 3393SOL    HW120513   1.468   4.119   2.271
 3393SOL    HW220514   1.597   4.100   2.370
 3394SOL     OW20515   3.537   2.965   2.432
 3394SOL    HW120516   3.573   2.873   2.416
 3394SOL    HW220517   3.442   2.968   2.404
 3395SOL     OW20518   9.035   2.562   2.372
 3395SOL    HW120519   9.074   2.604   2.453
 3395SOL    HW220520   8.974   2.627   2.326
 3396SOL     OW20521   1.851   8.563   1.882
 3396SOL    HW120522   1.942   8.546   1.843
 3396SOL    HW220523   1.832   8.493   1.952
 3397SOL     OW20524   2.827   9.080   0.180
 3397SOL    HW120525   2.843   8.991   0.222
 3397SOL    HW220526   2.736   9.081   0.138
 3398SOL     OW20527   0.274   0.398   2.811
 3398SOL    HW120528   0.322   0.312   2.792
 3398SOL    HW220529   0.273   0.454   2.728
 3399SOL     OW20530   0.597   6.102   2.615
 3399SOL    HW120531   0.578   6.198   2.595
 3399SOL    HW220532   0.521   6.063   2.667
 3400SOL     OW20533   9.168   9.906   2.578
 3400SOL    HW120534   9.178   9.821   2.527
 3400SOL    HW220535   9.238   9.971   2.549
 3401SOL     OW20536   3.796   6.492   2.129
 3401SOL    HW120537   3.718   6.510   2.188
 3401SOL    HW220538   3.763   6.471   2.037
 3402SOL     OW20539   8.029   6.573   2.244
 3402SOL    HW120540   8.009   6.551   2.149
 3402SOL    HW220541   7.986   6.660   2.268
 3403SOL     OW20542   7.946   2.110   1.317
 3403SOL    HW120543   8.032   2.129   1.269
 3403SOL    HW220544   7.966   2.077   1.409
 3404SOL     OW20545   1.925   4.090   2.442
 3404SOL    HW120546   1.927   4.187   2.420
 3404SOL    HW220547   1.989   4.072   2.517
 3405SOL     OW20548   9.080   2.167   2.859
 3405SOL    HW120549   8.984   2.143   2.849
 3405SOL    HW220550   9.137   2.096   2.818
 3406SOL     OW20551   3.825   2.079   2.187
 3406SOL    HW120552   3.911   2.062   2.140
 3406SOL    HW220553   3.773   1.993   2.193
 3407SOL     OW20554   1.551   9.341   2.443
 3407SOL    HW120555   1.499   9.427   2.438
 3407SOL    HW220556   1.487   9.264   2.450
 3408SOL     OW20557   7.901   7.423   0.170
 3408SOL    HW120558   7.810   7.388   0.189
 3408SOL    HW220559   7.913   7.512   0.214
 3409SOL     OW20560   8.311   6.064   3.066
 3409SOL    HW120561   8.213   6.079   3.083
 3409SOL    HW220562   8.350   6.147   3.025
 3410SOL     OW20563   9.259   2.275   2.122
 3410SOL    HW120564   9.346   2.233   2.096
 3410SOL    HW220565   9.250   2.274   2.221
 3411SOL     OW20566   3.916   3.238   2.508
 3411SOL    HW120567   3.981   3.296   2.460
 3411SOL    HW220568   3.845   3.295   2.551
 3412SOL     OW20569   3.735   0.794   1.995
 3412SOL    HW120570   3.772   0.873   2.044
 3412SOL    HW220571   3.659   0.755   2.047
 3413SOL     OW20572   3.964   8.520   1.912
 3413SOL    HW120573   3.988   8.534   1.816
 3413SOL    HW220574   3.891   8.452   1.919
 3414SOL     OW20575   9.201   5.556   1.520
 3414SOL    HW120576   9.132   5.587   1.454
 3414SOL    HW220577   9.248   5.475   1.483
 3415SOL     OW20578   8.640   5.466   1.498
 3415SOL    HW120579   8.637   5.562   1.524
 3415SOL    HW220580   8.578   5.413   1.556
 3416SOL     OW20581   2.210   1.789   1.072
 3416SOL    HW120582   2.223   1.849   1.151
 3416SOL    HW220583   2.292   1.790   1.015
 3417SOL     OW20584   7.947   3.905   0.678
 3417SOL    HW120585   7.912   3.823   0.633
 3417SOL    HW220586   8.021   3.879   0.740
 3418SOL     OW20587   4.362   3.512   2.117
 3418SOL    HW120588   4.426   3.578   2.156
 3418SOL    HW220589   4.269   3.535   2.146
 3419SOL     OW20590   0.241   1.053   0.989
 3419SOL    HW120591   0.336   1.083   0.981
 3419SOL    HW220592   0.236   0.974   1.050
 3420SOL     OW20593   5.004   8.377   0.624
 3420SOL    HW120594   4.992   8.302   0.689
 3420SOL    HW220595   5.013   8.463   0.673
 3421SOL     OW20596   9.650   4.083   1.237
 3421SOL    HW120597   9.667   4.107   1.142
 3421SOL    HW220598   9.606   4.160   1.284
 3422SOL     OW20599   1.018   2.919   1.968
 3422SOL    HW120600   0.932   2.971   1.967
 3422SOL    HW220601   1.020   2.857   1.889
 3423SOL     OW20602   0.593   3.146   2.592
 3423SOL    HW120603   0.576   3.243   2.575
 3423SOL    HW220604   0.516   3.092   2.558
 3424SOL     OW20605   0.455   0.762   2.567
 3424SOL    HW120606   0.493   0.827   2.633
 3424SOL    HW220607   0.529   0.720   2.515
 3425SOL     OW20608   0.051   5.318   2.925
 3425SOL    HW120609   0.040   5.417   2.917
 3425SOL    HW220610   9.962   5.276   2.946
 3426SOL     OW20611   8.817   5.871   2.697
 3426SOL    HW120612   8.902   5.824   2.673
 3426SOL    HW220613   8.776   5.910   2.614
 3427SOL     OW20614   2.802   1.125   2.130
 3427SOL    HW120615   2.791   1.028   2.108
 3427SOL    HW220616   2.735   1.152   2.200
 3428SOL     OW20617   9.142   1.714   3.023
 3428SOL    HW120618   9.133   1.811   3.046
 3428SOL    HW220619   9.231   1.681   3.054
 3429SOL     OW20620   2.104   7.054   0.640
 3429SOL    HW120621   2.054   6.968   0.648
 3429SOL    HW220622   2.158   7.068   0.723
 3430SOL     OW20623   3.034   9.683   0.168
 3430SOL    HW120624   3.046   9.584   0.181
 3430SOL    HW220625   3.051   9.730   0.255
 3431SOL     OW20626   0.528   5.616   1.516
 3431SOL    HW120627   0.609   5.626   1.458
 3431SOL    HW220628   0.446   5.609   1.458
 3432SOL     OW20629   0.774   5.125   1.434
 3432SOL    HW120630   0.836   5.117   1.512
 3432SOL    HW220631   0.693   5.177   1.461
 3433SOL     OW20632   8.215   2.782   1.664
 3433SOL    HW120633   8.310   2.751   1.658
 3433SOL    HW220634   8.161   2.713   1.713
 3434SOL     OW20635   7.908   2.041   0.134
 3434SOL    HW120636   7.952   1.992   0.059
 3434SOL    HW220637   7.876   1.976   0.203
 3435SOL     OW20638   3.411   3.459   1.461
 3435SOL    HW120639   3.392   3.550   1.499
 3435SOL    HW220640   3.495   3.463   1.408
 3436SOL     OW20641   8.287   5.277   0.151
 3436SOL    HW120642   8.386   5.262   0.139
 3436SOL    HW220643   8.258   5.240   0.239
 3437SOL     OW20644   9.698   6.602   0.192
 3437SOL    HW120645   9.771   6.536   0.178
 3437SOL    HW220646   9.620   6.579   0.133
 3438SOL     OW20647   1.363   5.921   0.648
 3438SOL    HW120648   1.299   5.937   0.723
 3438SOL    HW220649   1.418   6.004   0.633
 3439SOL     OW20650   4.052   9.227   1.344
 3439SOL    HW120651   4.046   9.304   1.408
 3439SOL    HW220652   4.148   9.204   1.329
 3440SOL     OW20653   0.490   6.362   2.591
 3440SOL    HW120654   0.449   6.387   2.504
 3440SOL    HW220655   0.421   6.365   2.663
 3441SOL     OW20656   1.724   6.596   1.698
 3441SOL    HW120657   1.792   6.586   1.770
 3441SOL    HW220658   1.743   6.679   1.645
 3442SOL     OW20659   9.508   5.959   0.488
 3442SOL    HW120660   9.439   5.895   0.522
 3442SOL    HW220661   9.599   5.929   0.516
 3443SOL     OW20662   0.840   1.132   1.769
 3443SOL    HW120663   0.742   1.120   1.783
 3443SOL    HW220664   0.881   1.046   1.738
 3444SOL     OW20665   7.988   3.452   1.301
 3444SOL    HW120666   7.925   3.529   1.299
 3444SOL    HW220667   7.937   3.366   1.297
 3445SOL     OW20668   2.519   5.437   1.337
 3445SOL    HW120669   2.557   5.525   1.309
 3445SOL    HW220670   2.427   5.450   1.373
 3446SOL     OW20671   1.455   7.666   2.889
 3446SOL    HW120672   1.462   7.766   2.890
 3446SOL    HW220673   1.440   7.634   2.795
 3447SOL     OW20674   1.060   0.600   1.323
 3447SOL    HW120675   1.158   0.591   1.341
 3447SOL    HW220676   1.045   0.613   1.225
 3448SOL     OW20677   3.074   1.802   2.821
 3448SOL    HW120678   3.086   1.704   2.805
 3448SOL    HW220679   3.092   1.852   2.737
 3449SOL     OW20680   8.146   3.253   1.855
 3449SOL    HW120681   8.126   3.175   1.796
 3449SOL    HW220682   8.204   3.318   1.806
 3450SOL     OW20683   4.372   7.970   0.422
 3450SOL    HW120684   4.313   8.019   0.357
 3450SOL    HW220685   4.457   7.944   0.376
 3451SOL     OW20686   4.211   2.029   1.648
 3451SOL    HW120687   4.222   1.932   1.670
 3451SOL    HW220688   4.169   2.037   1.557
 3452SOL     OW20689   3.760   8.802   2.478
 3452SOL    HW120690   3.731   8.715   2.518
 3452SOL    HW220691   3.784   8.865   2.552
 3453SOL     OW20692   8.140   6.299   2.617
 3453SOL    HW120693   8.083   6.319   2.537
 3453SOL    HW220694   8.219   6.245   2.589
 3454SOL     OW20695   1.734   5.590   2.003
 3454SOL    HW120696   1.729   5.534   1.921
 3454SOL    HW220697   1.672   5.668   1.994
 3455SOL     OW20698   0.360   2.654   2.798
 3455SOL    HW120699   0.280   2.678   2.743
 3455SOL    HW220700   0.380   2.556   2.787
 3456SOL     OW20701   0.754   6.656   2.916
 3456SOL    HW120702   0.819   6.587   2.949
 3456SOL    HW220703   0.714   6.624   2.830
 3457SOL     OW20704   2.216   7.879   1.291
 3457SOL    HW120705   2.238   7.787   1.324
 3457SOL    HW220706   2.121   7.901   1.312
 3458SOL     OW20707   2.455   2.172   2.223
 3458SOL    HW120708   2.544   2.218   2.223
 3458SOL    HW220709   2.469   2.074   2.236
 3459SOL     OW20710   0.306   0.101   2.478
 3459SOL    HW120711   0.383   0.065   2.425
 3459SOL    HW220712   0.225   0.108   2.419
 3460SOL     OW20713   1.815   3.025   2.246
 3460SOL    HW120714   1.731   3.025   2.300
 3460SOL    HW220715   1.807   3.092   2.172
 3461SOL     OW20716   0.746   7.075   0.676
 3461SOL    HW120717   0.818   7.108   0.615
 3461SOL    HW220718   0.658   7.075   0.628
 3462SOL     OW20719   9.801   1.878   2.976
 3462SOL    HW120720   9.818   1.904   2.881
 3462SOL    HW220721   9.735   1.942   3.016
 3463SOL     OW20722   9.873   1.823   0.262
 3463SOL    HW120723   9.971   1.805   0.255
 3463SOL    HW220724   9.850   1.906   0.210
 3464SOL     OW20725   8.965   0.670   0.691
 3464SOL    HW120726   8.958   0.631   0.599
 3464SOL    HW220727   8.875   0.667   0.735
 3465SOL     OW20728   2.022   2.131   0.899
 3465SOL    HW120729   2.077   2.169   0.974
 3465SOL    HW220730   2.083   2.085   0.834
 3466SOL     OW20731   0.916   4.073   1.813
 3466SOL    HW120732   0.962   4.004   1.757
 3466SOL    HW220733   0.984   4.117   1.872
 3467SOL     OW20734   9.877   5.955   0.231
 3467SOL    HW120735   9.857   5.859   0.250
 3467SOL    HW220736   9.941   5.961   0.154
 3468SOL     OW20737   3.031   5.073   1.496
 3468SOL    HW120738   3.124   5.100   1.472
 3468SOL    HW220739   3.020   5.075   1.595
 3469SOL     OW20740   8.137   7.951   1.412
 3469SOL    HW120741   8.122   8.049   1.403
 3469SOL    HW220742   8.087   7.917   1.492
 3470SOL     OW20743   8.417   1.303   3.101
 3470SOL    HW120744   8.348   1.341   3.163
 3470SOL    HW220745   8.419   1.358   3.017
 3471SOL     OW20746   3.392   0.619   0.788
 3471SOL    HW120747   3.352   0.640   0.699
 3471SOL    HW220748   3.489   0.643   0.787
 3472SOL     OW20749   1.193   8.536   0.187
 3472SOL    HW120750   1.289   8.521   0.211
 3472SOL    HW220751   1.141   8.555   0.270
 3473SOL     OW20752   1.512   0.341   1.565
 3473SOL    HW120753   1.596   0.328   1.618
 3473SOL    HW220754   1.534   0.374   1.474
 3474SOL     OW20755   5.005   9.535   2.220
 3474SOL    HW120756   4.939   9.527   2.145
 3474SOL    HW220757   4.970   9.486   2.300
 3475SOL     OW20758   2.484   8.147   2.393
 3475SOL    HW120759   2.447   8.119   2.482
 3475SOL    HW220760   2.576   8.184   2.406
 3476SOL     OW20761   0.327   4.930   2.490
 3476SOL    HW120762   0.231   4.923   2.518
 3476SOL    HW220763   0.379   4.979   2.559
 3477SOL     OW20764   3.149   6.457   0.295
 3477SOL    HW120765   3.168   6.551   0.267
 3477SOL    HW220766   3.225   6.398   0.268
 3478SOL     OW20767   2.676   4.690   2.561
 3478SOL    HW120768   2.733   4.637   2.624
 3478SOL    HW220769   2.712   4.681   2.468
 3479SOL     OW20770   0.059   9.148   0.419
 3479SOL    HW120771   0.121   9.086   0.466
 3479SOL    HW220772   0.112   9.220   0.373
 3480SOL     OW20773   8.688   4.481   1.421
 3480SOL    HW120774   8.613   4.435   1.469
 3480SOL    HW220775   8.693   4.576   1.450
 3481SOL     OW20776   5.905   8.599   2.753
 3481SOL    HW120777   5.860   8.529   2.697
 3481SOL    HW220778   5.883   8.584   2.849
 3482SOL     OW20779   1.908   0.545   2.459
 3482SOL    HW120780   1.977   0.531   2.530
 3482SOL    HW220781   1.947   0.521   2.370
 3483SOL     OW20782   2.099   8.501   1.785
 3483SOL    HW120783   2.098   8.467   1.691
 3483SOL    HW220784   2.183   8.553   1.801
 3484SOL     OW20785   3.815   2.549   2.450
 3484SOL    HW120786   3.904   2.588   2.425
 3484SOL    HW220787   3.742   2.614   2.429
 3485SOL     OW20788   1.972   5.788   2.449
 3485SOL    HW120789   1.954   5.694   2.420
 3485SOL    HW220790   2.069   5.810   2.432
 3486SOL     OW20791   1.112   7.561   0.338
 3486SOL    HW120792   1.017   7.581   0.364
 3486SOL    HW220793   1.113   7.490   0.268
 3487SOL     OW20794   1.782   3.959   1.722
 3487SOL    HW120795   1.697   3.971   1.669
 3487SOL    HW220796   1.771   3.882   1.784
 3488SOL     OW20797   9.636   2.440   0.742
 3488SOL    HW120798   9.629   2.450   0.841
 3488SOL    HW220799   9.660   2.346   0.719
 3489SOL     OW20800   3.379   6.117   2.537
 3489SOL    HW120801   3.368   6.135   2.439
 3489SOL    HW220802   3.476   6.101   2.557
 3490SOL     OW20803   0.445   1.135   0.063
 3490SOL    HW120804   0.354   1.099   0.082
 3490SOL    HW220805   0.454   1.226   0.103
 3491SOL     OW20806   1.871   4.820   1.841
 3491SOL    HW120807   1.942   4.889   1.853
 3491SOL    HW220808   1.783   4.858   1.868
 3492SOL     OW20809   3.998   2.811   1.081
 3492SOL    HW120810   4.047   2.851   1.159
 3492SOL    HW220811   3.900   2.825   1.092
 3493SOL     OW20812   4.961   7.891   0.730
 3493SOL    HW120813   4.906   7.939   0.662
 3493SOL    HW220814   5.001   7.809   0.689
 3494SOL     OW20815   9.195   0.846   2.374
 3494SOL    HW120816   9.188   0.899   2.459
 3494SOL    HW220817   9.289   0.849   2.341
 3495SOL     OW20818   4.632   9.925   2.593
 3495SOL    HW120819   4.642   0.024   2.607
 3495SOL    HW220820   4.714   9.890   2.548
 3496SOL     OW20821   2.119   7.197   2.011
 3496SOL    HW120822   2.170   7.202   2.097
 3496SOL    HW220823   2.168   7.247   1.940
 3497SOL     OW20824   1.805   4.243   0.392
 3497SOL    HW120825   1.867   4.169   0.420
 3497SOL    HW220826   1.766   4.285   0.474
 3498SOL     OW20827   0.597   2.496   1.032
 3498SOL    HW120828   0.567   2.490   1.127
 3498SOL    HW220829   0.520   2.529   0.976
 3499SOL     OW20830   0.568   5.989   3.162
 3499SOL    HW120831   0.500   5.929   3.119
 3499SOL    HW220832   0.649   5.936   3.184
 3500SOL     OW20833   2.337   8.310   2.215
 3500SOL    HW120834   2.390   8.272   2.291
 3500SOL    HW220835   2.332   8.243   2.141
 3501SOL     OW20836   0.127   4.285   1.634
 3501SOL    HW120837   0.110   4.374   1.592
 3501SOL    HW220838   0.201   4.239   1.586
 3502SOL     OW20839   3.438   5.171   3.014
 3502SOL    HW120840   3.453   5.091   3.072
 3502SOL    HW220841   3.392   5.143   2.930
 3503SOL     OW20842   3.964   8.581   2.739
 3503SOL    HW120843   3.872   8.593   2.703
 3503SOL    HW220844   3.963   8.593   2.839
 3504SOL     OW20845   2.985   8.734   1.089
 3504SOL    HW120846   3.049   8.791   1.038
 3504SOL    HW220847   3.033   8.685   1.161
 3505SOL     OW20848   2.389   9.287   1.078
 3505SOL    HW120849   2.328   9.279   1.157
 3505SOL    HW220850   2.467   9.344   1.103
 3506SOL     OW20851   0.201   5.427   0.242
 3506SOL    HW120852   0.300   5.427   0.232
 3506SOL    HW220853   0.160   5.374   0.167
 3507SOL     OW20854   1.063   1.062   0.952
 3507SOL    HW120855   0.990   1.034   1.014
 3507SOL    HW220856   1.113   1.139   0.991
 3508SOL     OW20857   2.921   6.027   0.256
 3508SOL    HW120858   2.822   6.013   0.246
 3508SOL    HW220859   2.969   5.952   0.209
 3509SOL     OW20860   9.053   5.089   0.225
 3509SOL    HW120861   9.042   5.166   0.162
 3509SOL    HW220862   9.150   5.064   0.231
 3510SOL     OW20863   1.940   2.297   2.676
 3510SOL    HW120864   2.030   2.261   2.649
 3510SOL    HW220865   1.949   2.347   2.762
 3511SOL     OW20866   3.369   7.681   1.103
 3511SOL    HW120867   3.459   7.705   1.066
 3511SOL    HW220868   3.302   7.750   1.076
 3512SOL     OW20869   2.873   5.240   3.069
 3512SOL    HW120870   2.882   5.166   3.135
 3512SOL    HW220871   2.849   5.201   2.980
 3513SOL     OW20872   9.998   1.286   0.751
 3513SOL    HW120873   9.951   1.298   0.839
 3513SOL    HW220874   0.005   1.374   0.704
 3514SOL     OW20875   3.215   2.428   0.250
 3514SOL    HW120876   3.142   2.367   0.219
 3514SOL    HW220877   3.272   2.381   0.318
 3515SOL     OW20878   2.464   9.646   0.832
 3515SOL    HW120879   2.445   9.730   0.780
 3515SOL    HW220880   2.556   9.652   0.872
 3516SOL     OW20881   0.988   8.135   1.557
 3516SOL    HW120882   0.959   8.068   1.625
 3516SOL    HW220883   0.946   8.224   1.578
 3517SOL     OW20884   2.318   0.024   1.970
 3517SOL    HW120885   2.349   9.985   2.057
 3517SOL    HW220886   2.384   0.093   1.940
 3518SOL     OW20887   8.064   5.208   0.847
 3518SOL    HW120888   8.068   5.121   0.796
 3518SOL    HW220889   8.000   5.270   0.802
 3519SOL     OW20890   3.938   4.344   1.521
 3519SOL    HW120891   3.931   4.251   1.485
 3519SOL    HW220892   3.977   4.404   1.451
 3520SOL     OW20893   2.600   9.568   2.943
 3520SOL    HW120894   2.537   9.623   2.888
 3520SOL    HW220895   2.634   9.623   3.020
 3521SOL     OW20896   8.484   5.932   0.725
 3521SOL    HW120897   8.410   5.917   0.659
 3521SOL    HW220898   8.566   5.961   0.677
 3522SOL     OW20899   8.035   6.049   3.134
 3522SOL    HW120900   7.999   5.982   3.069
 3522SOL    HW220901   8.062   6.002   3.218
 3523SOL     OW20902   8.189   2.141   1.192
 3523SOL    HW120903   8.241   2.126   1.107
 3523SOL    HW220904   8.237   2.097   1.268
 3524SOL     OW20905   1.707   2.142   2.734
 3524SOL    HW120906   1.792   2.194   2.729
 3524SOL    HW220907   1.675   2.122   2.641
 3525SOL     OW20908   0.172   6.306   0.345
 3525SOL    HW120909   0.215   6.311   0.255
 3525SOL    HW220910   0.204   6.383   0.401
 3526SOL     OW20911   1.981   4.772   2.973
 3526SOL    HW120912   1.999   4.857   3.022
 3526SOL    HW220913   1.886   4.744   2.989
 3527SOL     OW20914   0.582   4.345   2.063
 3527SOL    HW120915   0.667   4.359   2.012
 3527SOL    HW220916   0.555   4.430   2.108
 3528SOL     OW20917   2.339   1.727   0.417
 3528SOL    HW120918   2.420   1.771   0.455
 3528SOL    HW220919   2.348   1.628   0.427
 3529SOL     OW20920   1.820   5.748   0.403
 3529SOL    HW120921   1.826   5.695   0.488
 3529SOL    HW220922   1.863   5.696   0.329
 3530SOL     OW20923   2.379   6.137   1.896
 3530SOL    HW120924   2.282   6.137   1.873
 3530SOL    HW220925   2.390   6.120   1.994
 3531SOL     OW20926   1.911   5.568   1.578
 3531SOL    HW120927   2.008   5.569   1.605
 3531SOL    HW220928   1.871   5.658   1.597
 3532SOL     OW20929   3.997   4.467   2.724
 3532SOL    HW120930   3.956   4.550   2.686
 3532SOL    HW220931   4.018   4.482   2.821
 3533SOL     OW20932   1.031   8.142   2.685
 3533SOL    HW120933   0.983   8.114   2.602
 3533SOL    HW220934   1.121   8.099   2.688
 3534SOL     OW20935   1.914   6.510   0.207
 3534SOL    HW120936   1.913   6.422   0.159
 3534SOL    HW220937   1.978   6.572   0.161
 3535SOL     OW20938   2.299   0.388   2.453
 3535SOL    HW120939   2.289   0.301   2.404
 3535SOL    HW220940   2.223   0.398   2.518
 3536SOL     OW20941   4.195   4.157   0.750
 3536SOL    HW120942   4.113   4.214   0.747
 3536SOL    HW220943   4.240   4.158   0.661
 3537SOL     OW20944   3.843   7.513   0.198
 3537SOL    HW120945   3.751   7.541   0.170
 3537SOL    HW220946   3.910   7.573   0.154
 3538SOL     OW20947   8.439   6.828   0.326
 3538SOL    HW120948   8.370   6.803   0.258
 3538SOL    HW220949   8.420   6.782   0.412
 3539SOL     OW20950   9.131   1.773   0.784
 3539SOL    HW120951   9.081   1.775   0.697
 3539SOL    HW220952   9.229   1.771   0.765
 3540SOL     OW20953   2.979   7.706   2.041
 3540SOL    HW120954   2.924   7.622   2.037
 3540SOL    HW220955   2.919   7.786   2.038
 3541SOL     OW20956   2.954   4.732   2.837
 3541SOL    HW120957   2.920   4.740   2.931
 3541SOL    HW220958   2.903   4.660   2.790
 3542SOL     OW20959   1.426   8.293   1.795
 3542SOL    HW120960   1.523   8.284   1.818
 3542SOL    HW220961   1.405   8.389   1.779
 3543SOL     OW20962   4.137   4.422   1.706
 3543SOL    HW120963   4.061   4.400   1.645
 3543SOL    HW220964   4.139   4.357   1.782
 3544SOL     OW20965   4.722   3.063   3.052
 3544SOL    HW120966   4.661   3.039   3.128
 3544SOL    HW220967   4.811   3.091   3.089
 3545SOL     OW20968   7.913   9.113   0.254
 3545SOL    HW120969   7.934   9.069   0.341
 3545SOL    HW220970   7.816   9.099   0.232
 3546SOL     OW20971   9.004   2.686   1.574
 3546SOL    HW120972   9.084   2.632   1.547
 3546SOL    HW220973   8.949   2.706   1.493
 3547SOL     OW20974   2.959   4.156   2.014
 3547SOL    HW120975   2.892   4.193   1.949
 3547SOL    HW220976   3.017   4.088   1.968
 3548SOL     OW20977   0.792   3.821   0.483
 3548SOL    HW120978   0.877   3.873   0.486
 3548SOL    HW220979   0.719   3.878   0.444
 3549SOL     OW20980   4.112   2.109   1.398
 3549SOL    HW120981   4.029   2.162   1.381
 3549SOL    HW220982   4.192   2.168   1.385
 3550SOL     OW20983   9.880   1.537   1.882
 3550SOL    HW120984   9.967   1.585   1.873
 3550SOL    HW220985   9.895   1.447   1.922
 3551SOL     OW20986   3.248   0.972   1.741
 3551SOL    HW120987   3.269   0.954   1.837
 3551SOL    HW220988   3.169   1.033   1.735
 3552SOL     OW20989   8.951   2.361   1.129
 3552SOL    HW120990   8.880   2.402   1.186
 3552SOL    HW220991   8.988   2.280   1.175
 3553SOL     OW20992   0.952   0.565   2.106
 3553SOL    HW120993   1.028   0.543   2.167
 3553SOL    HW220994   0.914   0.654   2.132
 3554SOL     OW20995   9.779   6.925   2.315
 3554SOL    HW120996   9.690   6.956   2.348
 3554SOL    HW220997   9.817   6.994   2.252
 3555SOL     OW20998   3.380   4.392   2.757
 3555SOL    HW120999   3.307   4.449   2.794
 3555SOL    HW221000   3.341   4.308   2.718
 3556SOL     OW21001   4.645   3.214   1.694
 3556SOL    HW121002   4.631   3.297   1.641
 3556SOL    HW221003   4.574   3.147   1.671
 3557SOL     OW21004   9.418   5.831   1.208
 3557SOL    HW121005   9.354   5.776   1.156
 3557SOL    HW221006   9.498   5.776   1.231
 3558SOL     OW21007   9.458   6.875   3.041
 3558SOL    HW121008   9.425   6.870   3.135
 3558SOL    HW221009   9.469   6.970   3.013
 3559SOL     OW21010   0.658   7.625   1.291
 3559SOL    HW121011   0.636   7.636   1.194
 3559SOL    HW221012   0.728   7.553   1.301
 3560SOL     OW21013   9.644   5.128   0.343
 3560SOL    HW121014   9.590   5.210   0.328
 3560SOL    HW221015   9.651   5.076   0.258
 3561SOL     OW21016   0.648   0.447   0.411
 3561SOL    HW121017   0.593   0.388   0.470
 3561SOL    HW221018   0.695   0.390   0.343
 3562SOL     OW21019   2.499   6.494   1.670
 3562SOL    HW121020   2.489   6.493   1.770
 3562SOL    HW221021   2.478   6.404   1.633
 3563SOL     OW21022   2.531   3.606   0.803
 3563SOL    HW121023   2.566   3.687   0.849
 3563SOL    HW221024   2.537   3.618   0.704
 3564SOL     OW21025   8.293   1.702   2.817
 3564SOL    HW121026   8.214   1.736   2.766
 3564SOL    HW221027   8.376   1.746   2.783
 3565SOL     OW21028   5.139   8.473   2.982
 3565SOL    HW121029   5.049   8.516   2.979
 3565SOL    HW221030   5.210   8.543   2.992
 3566SOL     OW21031   3.382   2.181   2.774
 3566SOL    HW121032   3.285   2.190   2.794
 3566SOL    HW221033   3.396   2.102   2.713
 3567SOL     OW21034   1.561   2.059   1.167
 3567SOL    HW121035   1.645   2.109   1.189
 3567SOL    HW221036   1.482   2.120   1.175
 3568SOL     OW21037   2.163   0.445   0.884
 3568SOL    HW121038   2.084   0.423   0.827
 3568SOL    HW221039   2.209   0.361   0.911
 3569SOL     OW21040   4.163   9.565   1.182
 3569SOL    HW121041   4.090   9.499   1.165
 3569SOL    HW221042   4.252   9.522   1.164
 3570SOL     OW21043   3.275   9.945   2.616
 3570SOL    HW121044   3.197   9.989   2.661
 3570SOL    HW221045   3.242   9.882   2.545
 3571SOL     OW21046   2.432   6.774   2.163
 3571SOL    HW121047   2.427   6.873   2.157
 3571SOL    HW221048   2.368   6.734   2.097
 3572SOL     OW21049   3.023   8.526   2.536
 3572SOL    HW121050   3.020   8.462   2.613
 3572SOL    HW221051   3.083   8.603   2.560
 3573SOL     OW21052   2.434   5.926   1.718
 3573SOL    HW121053   2.530   5.928   1.689
 3573SOL    HW221054   2.418   6.001   1.783
 3574SOL     OW21055   0.550   5.428   1.234
 3574SOL    HW121056   0.554   5.515   1.186
 3574SOL    HW221057   0.637   5.380   1.225
 3575SOL     OW21058   9.743   0.831   2.484
 3575SOL    HW121059   9.667   0.853   2.546
 3575SOL    HW221060   9.821   0.798   2.536
 3576SOL     OW21061   8.792   6.504   0.419
 3576SOL    HW121062   8.804   6.523   0.516
 3576SOL    HW221063   8.750   6.583   0.375
 3577SOL     OW21064   8.557   7.857   1.858
 3577SOL    HW121065   8.507   7.882   1.775
 3577SOL    HW221066   8.505   7.887   1.938
 3578SOL     OW21067   0.570   4.507   1.280
 3578SOL    HW121068   0.477   4.487   1.310
 3578SOL    HW221069   0.635   4.467   1.346
 3579SOL     OW21070   2.786   0.279   3.119
 3579SOL    HW121071   2.802   0.352   3.053
 3579SOL    HW221072   2.805   0.311   3.211
 3580SOL     OW21073   4.281   9.947   1.208
 3580SOL    HW121074   4.309   0.016   1.275
 3580SOL    HW221075   4.337   9.956   1.126
 3581SOL     OW21076   9.874   2.186   2.344
 3581SOL    HW121077   9.924   2.230   2.419
 3581SOL    HW221078   9.927   2.193   2.260
 3582SOL     OW21079   6.266   9.046   2.140
 3582SOL    HW121080   6.344   9.036   2.079
 3582SOL    HW221081   6.185   9.003   2.099
 3583SOL     OW21082   3.086   1.533   2.131
 3583SOL    HW121083   3.005   1.486   2.096
 3583SOL    HW221084   3.122   1.484   2.210
 3584SOL     OW21085   4.105   3.809   2.359
 3584SOL    HW121086   4.128   3.774   2.450
 3584SOL    HW221087   4.024   3.868   2.366
 3585SOL     OW21088   2.156   3.862   1.854
 3585SOL    HW121089   2.106   3.915   1.785
 3585SOL    HW221090   2.249   3.898   1.863
 3586SOL     OW21091   8.662   3.172   2.227
 3586SOL    HW121092   8.735   3.154   2.293
 3586SOL    HW221093   8.695   3.234   2.156
 3587SOL     OW21094   9.555   3.418   1.107
 3587SOL    HW121095   9.508   3.477   1.174
 3587SOL    HW221096   9.490   3.389   1.037
 3588SOL     OW21097   0.415   5.173   0.929
 3588SOL    HW121098   0.450   5.230   0.855
 3588SOL    HW221099   0.486   5.109   0.959
 3589SOL     OW21100   0.742   4.365   1.453
 3589SOL    HW121101   0.783   4.307   1.383
 3589SOL    HW221102   0.721   4.310   1.534
 3590SOL     OW21103   1.183   2.470   2.344
 3590SOL    HW121104   1.261   2.433   2.292
 3590SOL    HW221105   1.099   2.424   2.315
 3591SOL     OW21106   6.208   9.612   2.484
 3591SOL    HW121107   6.127   9.666   2.459
 3591SOL    HW221108   6.237   9.557   2.406
 3592SOL     OW21109   9.466   3.044   1.742
 3592SOL    HW121110   9.386   3.103   1.734
 3592SOL    HW221111   9.437   2.950   1.758
 3593SOL     OW21112   2.973   3.324   3.096
 3593SOL    HW121113   3.065   3.293   3.072
 3593SOL    HW221114   2.950   3.406   3.044
 3594SOL     OW21115   0.763   2.269   1.278
 3594SOL    HW121116   0.854   2.251   1.315
 3594SOL    HW221117   0.762   2.252   1.180
 3595SOL     OW21118   0.595   4.967   0.994
 3595SOL    HW121119   0.618   4.932   0.903
 3595SOL    HW221120   0.595   4.893   1.060
 3596SOL     OW21121   1.467   4.408   0.969
 3596SOL    HW121122   1.549   4.425   1.025
 3596SOL    HW221123   1.460   4.478   0.898
 3597SOL     OW21124   7.490   9.924   0.369
 3597SOL    HW121125   7.409   9.907   0.314
 3597SOL    HW221126   7.556   9.850   0.357
 3598SOL     OW21127   9.648   7.414   1.492
 3598SOL    HW121128   9.677   7.507   1.470
 3598SOL    HW221129   9.715   7.349   1.456
 3599SOL     OW21130   3.326   7.611   1.361
 3599SOL    HW121131   3.279   7.678   1.418
 3599SOL    HW221132   3.344   7.652   1.271
 3600SOL     OW21133   9.934   7.091   3.004
 3600SOL    HW121134   9.984   7.177   3.001
 3600SOL    HW221135   9.997   7.017   3.029
 3601SOL     OW21136   9.740   7.687   1.442
 3601SOL    HW121137   9.750   7.785   1.429
 3601SOL    HW221138   9.830   7.644   1.445
 3602SOL     OW21139   3.026   0.573   0.152
 3602SOL    HW121140   3.022   0.475   0.136
 3602SOL    HW221141   2.939   0.615   0.126
 3603SOL     OW21142   1.001   4.925   1.858
 3603SOL    HW121143   1.091   4.889   1.884
 3603SOL    HW221144   0.940   4.849   1.836
 3604SOL     OW21145   3.392   7.940   1.515
 3604SOL    HW121146   3.364   8.035   1.510
 3604SOL    HW221147   3.311   7.881   1.518
 3605SOL     OW21148   9.383   1.042   2.887
 3605SOL    HW121149   9.480   1.022   2.901
 3605SOL    HW221150   9.338   0.963   2.845
 3606SOL     OW21151   0.874   9.649   1.956
 3606SOL    HW121152   0.807   9.575   1.943
 3606SOL    HW221153   0.843   9.709   2.029
 3607SOL     OW21154   2.842   5.234   1.382
 3607SOL    HW121155   2.753   5.196   1.405
 3607SOL    HW221156   2.914   5.175   1.417
 3608SOL     OW21157   9.784   8.011   2.973
 3608SOL    HW121158   9.868   7.962   2.948
 3608SOL    HW221159   9.807   8.089   3.030
 3609SOL     OW21160   7.907   6.827   2.295
 3609SOL    HW121161   7.909   6.873   2.206
 3609SOL    HW221162   7.817   6.837   2.336
 3610SOL     OW21163   9.926   8.129   2.310
 3610SOL    HW121164   9.903   8.212   2.361
 3610SOL    HW221165   0.012   8.092   2.344
 3611SOL     OW21166   4.748   0.460   1.525
 3611SOL    HW121167   4.727   0.557   1.516
 3611SOL    HW221168   4.710   0.425   1.611
 3612SOL     OW21169   1.801   9.874   0.630
 3612SOL    HW121170   1.851   9.848   0.548
 3612SOL    HW221171   1.825   9.968   0.656
 3613SOL     OW21172   3.756   8.343   1.923
 3613SOL    HW121173   3.660   8.336   1.895
 3613SOL    HW221174   3.803   8.258   1.902
 3614SOL     OW21175   0.494   9.981   1.245
 3614SOL    HW121176   0.579   9.998   1.294
 3614SOL    HW221177   0.419   9.971   1.310
 3615SOL     OW21178   1.816   0.841   0.559
 3615SOL    HW121179   1.730   0.809   0.598
 3615SOL    HW221180   1.836   0.789   0.476
 3616SOL     OW21181   2.758   0.773   1.825
 3616SOL    HW121182   2.818   0.759   1.746
 3616SOL    HW221183   2.676   0.823   1.796
 3617SOL     OW21184   7.571   0.871   2.776
 3617SOL    HW121185   7.505   0.828   2.715
 3617SOL    HW221186   7.609   0.953   2.733
 3618SOL     OW21187   2.764   9.012   0.686
 3618SOL    HW121188   2.673   9.046   0.663
 3618SOL    HW221189   2.826   9.090   0.699
 3619SOL     OW21190   8.272   1.252   1.653
 3619SOL    HW121191   8.175   1.238   1.634
 3619SOL    HW221192   8.326   1.181   1.606
 3620SOL     OW21193   3.818   0.736   0.997
 3620SOL    HW121194   3.860   0.699   1.080
 3620SOL    HW221195   3.792   0.831   1.012
 3621SOL     OW21196   1.965   6.810   2.581
 3621SOL    HW121197   1.877   6.857   2.585
 3621SOL    HW221198   1.959   6.723   2.629
 3622SOL     OW21199   0.227   1.611   0.794
 3622SOL    HW121200   0.156   1.574   0.734
 3622SOL    HW221201   0.292   1.539   0.818
 3623SOL     OW21202   4.204   4.378   2.329
 3623SOL    HW121203   4.217   4.366   2.428
 3623SOL    HW221204   4.154   4.300   2.292
 3624SOL     OW21205   1.763   1.258   2.657
 3624SOL    HW121206   1.695   1.209   2.603
 3624SOL    HW221207   1.826   1.306   2.596
 3625SOL     OW21208   8.710   2.778   0.805
 3625SOL    HW121209   8.617   2.745   0.794
 3625SOL    HW221210   8.726   2.804   0.900
 3626SOL     OW21211   2.460   3.984   2.769
 3626SOL    HW121212   2.477   3.998   2.672
 3626SOL    HW221213   2.545   3.960   2.815
 3627SOL     OW21214   2.779   4.633   0.422
 3627SOL    HW121215   2.815   4.664   0.335
 3627SOL    HW221216   2.755   4.536   0.415
 3628SOL     OW21217   1.871   8.504   2.504
 3628SOL    HW121218   1.885   8.535   2.410
 3628SOL    HW221219   1.839   8.580   2.560
 3629SOL     OW21220   2.071   4.271   1.991
 3629SOL    HW121221   2.086   4.319   1.905
 3629SOL    HW221222   1.990   4.213   1.984
 3630SOL     OW21223   2.934   1.170   1.198
 3630SOL    HW121224   2.865   1.141   1.264
 3630SOL    HW221225   3.025   1.157   1.237
 3631SOL     OW21226   4.098   5.412   2.875
 3631SOL    HW121227   4.156   5.493   2.863
 3631SOL    HW221228   4.155   5.330   2.873
 3632SOL     OW21229   0.770   0.362   2.818
 3632SOL    HW121230   0.733   0.454   2.829
 3632SOL    HW221231   0.725   0.318   2.740
 3633SOL     OW21232   8.812   3.955   3.056
 3633SOL    HW121233   8.910   3.945   3.041
 3633SOL    HW221234   8.783   3.899   3.134
 3634SOL     OW21235   5.049   0.275   2.515
 3634SOL    HW121236   5.055   0.372   2.541
 3634SOL    HW221237   5.126   0.252   2.455
 3635SOL     OW21238   8.775   7.524   0.888
 3635SOL    HW121239   8.728   7.605   0.924
 3635SOL    HW221240   8.777   7.528   0.788
 3636SOL     OW21241   1.656   9.910   1.490
 3636SOL    HW121242   1.640   9.929   1.587
 3636SOL    HW221243   1.719   9.978   1.453
 3637SOL     OW21244   0.289   5.908   1.920
 3637SOL    HW121245   0.313   5.861   1.836
 3637SOL    HW221246   0.232   5.988   1.899
 3638SOL     OW21247   0.568   6.037   0.358
 3638SOL    HW121248   0.573   6.009   0.262
 3638SOL    HW221249   0.473   6.035   0.387
 3639SOL     OW21250   8.303   0.044   0.828
 3639SOL    HW121251   8.284   0.107   0.752
 3639SOL    HW221252   8.320   0.097   0.911
 3640SOL     OW21253   8.693   0.622   0.785
 3640SOL    HW121254   8.634   0.625   0.704
 3640SOL    HW221255   8.723   0.528   0.800
 3641SOL     OW21256   9.245   9.328   1.680
 3641SOL    HW121257   9.173   9.261   1.699
 3641SOL    HW221258   9.294   9.349   1.765
 3642SOL     OW21259   8.711   8.138   2.599
 3642SOL    HW121260   8.800   8.118   2.558
 3642SOL    HW221261   8.687   8.233   2.582
 3643SOL     OW21262   0.017   2.682   1.487
 3643SOL    HW121263   0.105   2.726   1.507
 3643SOL    HW221264   0.030   2.582   1.486
 3644SOL     OW21265   9.511   7.387   0.400
 3644SOL    HW121266   9.501   7.330   0.482
 3644SOL    HW221267   9.597   7.363   0.354
 3645SOL     OW21268   8.873   9.524   0.808
 3645SOL    HW121269   8.847   9.438   0.851
 3645SOL    HW221270   8.965   9.516   0.769
 3646SOL     OW21271   8.886   1.403   1.053
 3646SOL    HW121272   8.964   1.362   1.100
 3646SOL    HW221273   8.919   1.464   0.982
 3647SOL     OW21274   4.519   2.802   1.652
 3647SOL    HW121275   4.583   2.813   1.728
 3647SOL    HW221276   4.427   2.831   1.681
 3648SOL     OW21277   1.933   3.308   2.480
 3648SOL    HW121278   2.001   3.240   2.453
 3648SOL    HW221279   1.979   3.388   2.518
 3649SOL     OW21280   1.138   9.223   0.990
 3649SOL    HW121281   1.039   9.210   0.995
 3649SOL    HW221282   1.176   9.159   0.923
 3650SOL     OW21283   2.121   2.239   1.691
 3650SOL    HW121284   2.038   2.272   1.735
 3650SOL    HW221285   2.116   2.140   1.678
 3651SOL     OW21286   0.332   8.530   0.757
 3651SOL    HW121287   0.372   8.617   0.785
 3651SOL    HW221288   0.324   8.469   0.836
 3652SOL     OW21289   7.589   9.525   2.521
 3652SOL    HW121290   7.537   9.441   2.504
 3652SOL    HW221291   7.572   9.557   2.614
 3653SOL     OW21292   3.895   9.011   1.289
 3653SOL    HW121293   3.871   8.966   1.375
 3653SOL    HW221294   3.945   9.095   1.308
 3654SOL     OW21295   8.623   9.094   1.716
 3654SOL    HW121296   8.704   9.036   1.717
 3654SOL    HW221297   8.648   9.185   1.684
 3655SOL     OW21298   4.323   9.612   0.134
 3655SOL    HW121299   4.406   9.665   0.118
 3655SOL    HW221300   4.333   9.561   0.220
 3656SOL     OW21301   0.429   3.316   1.773
 3656SOL    HW121302   0.343   3.367   1.779
 3656SOL    HW221303   0.432   3.268   1.685
 3657SOL     OW21304   7.606   1.911   0.651
 3657SOL    HW121305   7.565   1.839   0.595
 3657SOL    HW221306   7.648   1.870   0.732
 3658SOL     OW21307   8.438   5.551   0.729
 3658SOL    HW121308   8.424   5.592   0.639
 3658SOL    HW221309   8.367   5.583   0.792
 3659SOL     OW21310   9.825   3.715   1.770
 3659SOL    HW121311   9.784   3.794   1.816
 3659SOL    HW221312   9.847   3.645   1.838
 3660SOL     OW21313   9.261   6.131   0.194
 3660SOL    HW121314   9.173   6.098   0.160
 3660SOL    HW221315   9.273   6.226   0.167
 3661SOL     OW21316   8.690   6.071   1.396
 3661SOL    HW121317   8.784   6.042   1.382
 3661SOL    HW221318   8.684   6.131   1.476
 3662SOL     OW21319   8.182   3.407   1.108
 3662SOL    HW121320   8.114   3.417   1.180
 3662SOL    HW221321   8.152   3.455   1.026
 3663SOL     OW21322   1.638   6.729   3.063
 3663SOL    HW121323   1.601   6.734   3.156
 3663SOL    HW221324   1.666   6.635   3.044
 3664SOL     OW21325   8.014   8.314   2.434
 3664SOL    HW121326   7.988   8.306   2.338
 3664SOL    HW221327   7.971   8.395   2.474
 3665SOL     OW21328   0.809   0.838   2.729
 3665SOL    HW121329   0.864   0.838   2.646
 3665SOL    HW221330   0.869   0.850   2.808
 3666SOL     OW21331   9.336   8.287   2.902
 3666SOL    HW121332   9.348   8.188   2.908
 3666SOL    HW221333   9.251   8.308   2.854
 3667SOL     OW21334   1.957   2.780   2.513
 3667SOL    HW121335   1.879   2.755   2.571
 3667SOL    HW221336   1.931   2.769   2.416
 3668SOL     OW21337   3.734   0.672   1.616
 3668SOL    HW121338   3.750   0.696   1.521
 3668SOL    HW221339   3.803   0.606   1.646
 3669SOL     OW21340   8.232   5.081   1.024
 3669SOL    HW121341   8.314   5.054   0.975
 3669SOL    HW221342   8.170   5.130   0.962
 3670SOL     OW21343   9.662   5.825   0.943
 3670SOL    HW121344   9.733   5.824   1.014
 3670SOL    HW221345   9.662   5.914   0.897
 3671SOL     OW21346   7.709   7.958   1.932
 3671SOL    HW121347   7.656   7.991   2.010
 3671SOL    HW221348   7.656   7.973   1.848
 3672SOL     OW21349   9.390   2.663   3.037
 3672SOL    HW121350   9.300   2.681   2.996
 3672SOL    HW221351   9.400   2.564   3.052
 3673SOL     OW21352   1.458   2.690   1.940
 3673SOL    HW121353   1.535   2.745   1.909
 3673SOL    HW221354   1.414   2.734   2.018
 3674SOL     OW21355   1.592   9.382   0.115
 3674SOL    HW121356   1.531   9.318   0.069
 3674SOL    HW221357   1.546   9.471   0.126
 3675SOL     OW21358   9.049   2.117   1.205
 3675SOL    HW121359   9.053   2.049   1.278
 3675SOL    HW221360   9.125   2.101   1.141
 3676SOL     OW21361   8.613   0.294   1.438
 3676SOL    HW121362   8.687   0.284   1.505
 3676SOL    HW221363   8.559   0.375   1.461
 3677SOL     OW21364   3.289   9.694   1.129
 3677SOL    HW121365   3.207   9.747   1.153
 3677SOL    HW221366   3.291   9.611   1.184
 3678SOL     OW21367   8.488   8.714   1.218
 3678SOL    HW121368   8.476   8.734   1.121
 3678SOL    HW221369   8.575   8.666   1.231
 3679SOL     OW21370   4.029   7.464   1.656
 3679SOL    HW121371   4.117   7.443   1.699
 3679SOL    HW221372   3.996   7.383   1.607
 3680SOL     OW21373   5.427   9.723   2.894
 3680SOL    HW121374   5.466   9.680   2.813
 3680SOL    HW221375   5.431   9.823   2.883
 3681SOL     OW21376   3.098   0.355   0.972
 3681SOL    HW121377   3.014   0.320   0.930
 3681SOL    HW221378   3.107   0.453   0.955
 3682SOL     OW21379   8.604   1.364   2.315
 3682SOL    HW121380   8.522   1.355   2.258
 3682SOL    HW221381   8.679   1.312   2.275
 3683SOL     OW21382   0.816   7.058   2.207
 3683SOL    HW121383   0.865   7.144   2.200
 3683SOL    HW221384   0.754   7.048   2.129
 3684SOL     OW21385   1.758   1.484   3.034
 3684SOL    HW121386   1.725   1.566   3.081
 3684SOL    HW221387   1.710   1.475   2.947
 3685SOL     OW21388   8.212   7.076   1.663
 3685SOL    HW121389   8.256   7.063   1.751
 3685SOL    HW221390   8.196   7.174   1.647
 3686SOL     OW21391   0.628   2.920   1.813
 3686SOL    HW121392   0.534   2.951   1.826
 3686SOL    HW221393   0.688   2.969   1.877
 3687SOL     OW21394   5.487   9.830   2.503
 3687SOL    HW121395   5.531   9.769   2.437
 3687SOL    HW221396   5.396   9.854   2.471
 3688SOL     OW21397   7.089   9.009   1.987
 3688SOL    HW121398   7.019   8.972   1.926
 3688SOL    HW221399   7.069   8.983   2.082
 3689SOL     OW21400   4.189   2.769   2.143
 3689SOL    HW121401   4.267   2.708   2.133
 3689SOL    HW221402   4.218   2.864   2.128
 3690SOL     OW21403   8.086   9.451   0.445
 3690SOL    HW121404   8.076   9.550   0.454
 3690SOL    HW221405   8.176   9.423   0.478
 3691SOL     OW21406   7.766   1.102   1.169
 3691SOL    HW121407   7.667   1.089   1.169
 3691SOL    HW221408   7.802   1.092   1.262
 3692SOL     OW21409   2.304   1.113   3.096
 3692SOL    HW121410   2.300   1.118   3.196
 3692SOL    HW221411   2.277   1.200   3.057
 3693SOL     OW21412   7.052   9.047   2.663
 3693SOL    HW121413   6.965   9.031   2.709
 3693SOL    HW221414   7.049   9.135   2.615
 3694SOL     OW21415   0.646   4.746   1.156
 3694SOL    HW121416   0.607   4.666   1.201
 3694SOL    HW221417   0.736   4.722   1.119
 3695SOL     OW21418   1.853   9.470   0.157
 3695SOL    HW121419   1.886   9.415   0.234
 3695SOL    HW221420   1.761   9.439   0.131
 3696SOL     OW21421   9.024   5.146   2.554
 3696SOL    HW121422   8.979   5.184   2.473
 3696SOL    HW221423   8.954   5.111   2.617
 3697SOL     OW21424   8.295   4.840   2.110
 3697SOL    HW121425   8.305   4.749   2.148
 3697SOL    HW221426   8.234   4.837   2.031
 3698SOL     OW21427   3.205   9.088   0.630
 3698SOL    HW121428   3.301   9.116   0.633
 3698SOL    HW221429   3.177   9.076   0.535
 3699SOL     OW21430   1.679   0.754   1.879
 3699SOL    HW121431   1.607   0.738   1.811
 3699SOL    HW221432   1.735   0.832   1.851
 3700SOL     OW21433   3.979   8.328   2.942
 3700SOL    HW121434   3.920   8.315   2.862
 3700SOL    HW221435   3.959   8.416   2.984
 3701SOL     OW21436   6.523   8.722   2.016
 3701SOL    HW121437   6.467   8.723   2.099
 3701SOL    HW221438   6.536   8.628   1.985
 3702SOL     OW21439   7.845   0.006   0.742
 3702SOL    HW121440   7.898   9.922   0.731
 3702SOL    HW221441   7.765   9.988   0.799
 3703SOL     OW21442   8.887   2.679   0.412
 3703SOL    HW121443   8.836   2.730   0.343
 3703SOL    HW221444   8.824   2.633   0.474
 3704SOL     OW21445   9.922   8.515   0.132
 3704SOL    HW121446   0.015   8.478   0.133
 3704SOL    HW221447   9.915   8.588   0.200
 3705SOL     OW21448   1.753   2.039   1.575
 3705SOL    HW121449   1.679   2.000   1.520
 3705SOL    HW221450   1.834   2.052   1.517
 3706SOL     OW21451   9.190   8.753   1.509
 3706SOL    HW121452   9.165   8.762   1.606
 3706SOL    HW221453   9.252   8.827   1.484
 3707SOL     OW21454   3.447   1.426   1.416
 3707SOL    HW121455   3.501   1.474   1.485
 3707SOL    HW221456   3.486   1.335   1.401
 3708SOL     OW21457   8.211   5.949   2.488
 3708SOL    HW121458   8.273   6.026   2.503
 3708SOL    HW221459   8.263   5.864   2.491
 3709SOL     OW21460   1.925   3.611   0.208
 3709SOL    HW121461   1.874   3.696   0.197
 3709SOL    HW221462   2.019   3.632   0.234
 3710SOL     OW21463   7.405   7.854   2.670
 3710SOL    HW121464   7.484   7.797   2.647
 3710SOL    HW221465   7.322   7.811   2.636
 3711SOL     OW21466   4.804   2.059   1.958
 3711SOL    HW121467   4.712   2.023   1.942
 3711SOL    HW221468   4.859   2.045   1.875
 3712SOL     OW21469   3.044   8.402   1.418
 3712SOL    HW121470   2.967   8.415   1.482
 3712SOL    HW221471   3.054   8.305   1.397
 3713SOL     OW21472   3.296   5.165   1.482
 3713SOL    HW121473   3.349   5.081   1.492
 3713SOL    HW221474   3.312   5.225   1.560
 3714SOL     OW21475   8.604   6.299   0.508
 3714SOL    HW121476   8.678   6.354   0.469
 3714SOL    HW221477   8.516   6.337   0.480
 3715SOL     OW21478   2.830   0.712   0.523
 3715SOL    HW121479   2.801   0.632   0.471
 3715SOL    HW221480   2.758   0.782   0.519
 3716SOL     OW21481   3.763   1.130   0.487
 3716SOL    HW121482   3.763   1.190   0.406
 3716SOL    HW221483   3.724   1.180   0.565
 3717SOL     OW21484   9.419   9.216   2.545
 3717SOL    HW121485   9.447   9.241   2.637
 3717SOL    HW221486   9.407   9.117   2.539
 3718SOL     OW21487   0.599   9.202   0.456
 3718SOL    HW121488   0.556   9.113   0.472
 3718SOL    HW221489   0.655   9.197   0.373
 3719SOL     OW21490   8.773   0.907   1.621
 3719SOL    HW121491   8.735   1.000   1.621
 3719SOL    HW221492   8.838   0.898   1.546
 3720SOL     OW21493   8.049   2.207   0.306
 3720SOL    HW121494   8.007   2.146   0.238
 3720SOL    HW221495   7.983   2.277   0.332
 3721SOL     OW21496   9.748   7.332   0.280
 3721SOL    HW121497   9.756   7.278   0.196
 3721SOL    HW221498   9.793   7.421   0.266
 3722SOL     OW21499   0.305   6.054   0.437
 3722SOL    HW121500   0.255   6.139   0.419
 3722SOL    HW221501   0.317   6.043   0.535
 3723SOL     OW21502   8.450   2.901   2.844
 3723SOL    HW121503   8.545   2.870   2.853
 3723SOL    HW221504   8.445   2.998   2.868
 3724SOL     OW21505   2.851   8.073   1.614
 3724SOL    HW121506   2.755   8.095   1.634
 3724SOL    HW221507   2.907   8.092   1.695
 3725SOL     OW21508   5.013   2.914   0.951
 3725SOL    HW121509   4.924   2.883   0.918
 3725SOL    HW221510   5.025   2.884   1.046
 3726SOL     OW21511   0.398   1.397   0.855
 3726SOL    HW121512   0.393   1.336   0.776
 3726SOL    HW221513   0.392   1.344   0.939
 3727SOL     OW21514   8.473   9.175   1.936
 3727SOL    HW121515   8.495   9.105   2.004
 3727SOL    HW221516   8.520   9.154   1.851
 3728SOL     OW21517   0.503   9.918   0.468
 3728SOL    HW121518   0.587   9.948   0.513
 3728SOL    HW221519   0.491   9.967   0.382
 3729SOL     OW21520   3.166   0.802   0.201
 3729SOL    HW121521   3.114   0.723   0.167
 3729SOL    HW221522   3.137   0.823   0.294
 3730SOL     OW21523   8.058   8.016   0.365
 3730SOL    HW121524   8.080   8.113   0.370
 3730SOL    HW221525   8.094   7.969   0.445
 3731SOL     OW21526   0.765   1.881   1.914
 3731SOL    HW121527   0.776   1.892   2.013
 3731SOL    HW221528   0.816   1.800   1.884
 3732SOL     OW21529   2.476   3.355   0.946
 3732SOL    HW121530   2.409   3.314   0.885
 3732SOL    HW221531   2.502   3.446   0.911
 3733SOL     OW21532   8.684   1.639   1.841
 3733SOL    HW121533   8.748   1.710   1.870
 3733SOL    HW221534   8.693   1.560   1.901
 3734SOL     OW21535   9.319   5.441   0.758
 3734SOL    HW121536   9.368   5.515   0.802
 3734SOL    HW221537   9.383   5.384   0.706
 3735SOL     OW21538   2.826   7.324   1.796
 3735SOL    HW121539   2.821   7.309   1.698
 3735SOL    HW221540   2.781   7.248   1.844
 3736SOL     OW21541   1.846   3.667   2.346
 3736SOL    HW121542   1.756   3.690   2.382
 3736SOL    HW221543   1.885   3.746   2.300
 3737SOL     OW21544   1.688   4.139   3.008
 3737SOL    HW121545   1.700   4.053   2.958
 3737SOL    HW221546   1.733   4.132   3.097
 3738SOL     OW21547   0.146   6.453   1.176
 3738SOL    HW121548   0.083   6.445   1.099
 3738SOL    HW221549   0.160   6.550   1.198
 3739SOL     OW21550   4.406   1.070   0.633
 3739SOL    HW121551   4.310   1.077   0.660
 3739SOL    HW221552   4.413   1.042   0.538
 3740SOL     OW21553   1.585   3.028   2.384
 3740SOL    HW121554   1.528   2.961   2.433
 3740SOL    HW221555   1.546   3.119   2.395
 3741SOL     OW21556   9.501   3.992   0.236
 3741SOL    HW121557   9.405   4.009   0.258
 3741SOL    HW221558   9.511   3.901   0.197
 3742SOL     OW21559   3.923   2.725   2.074
 3742SOL    HW121560   3.869   2.808   2.085
 3742SOL    HW221561   4.020   2.745   2.092
 3743SOL     OW21562   8.538   8.518   2.909
 3743SOL    HW121563   8.621   8.468   2.934
 3743SOL    HW221564   8.506   8.487   2.819
 3744SOL     OW21565   9.798   4.985   1.225
 3744SOL    HW121566   9.774   5.077   1.256
 3744SOL    HW221567   9.828   4.930   1.303
 3745SOL     OW21568   8.429   1.740   1.777
 3745SOL    HW121569   8.520   1.705   1.795
 3745SOL    HW221570   8.362   1.689   1.830
 3746SOL     OW21571   3.444   8.292   2.482
 3746SOL    HW121572   3.517   8.315   2.417
 3746SOL    HW221573   3.355   8.313   2.442
 3747SOL     OW21574   5.123   9.516   2.856
 3747SOL    HW121575   5.161   9.562   2.936
 3747SOL    HW221576   5.197   9.486   2.796
 3748SOL     OW21577   9.028   5.041   0.857
 3748SOL    HW121578   9.047   4.974   0.785
 3748SOL    HW221579   9.043   5.133   0.820
 3749SOL     OW21580   8.506   5.804   2.338
 3749SOL    HW121581   8.463   5.774   2.424
 3749SOL    HW221582   8.445   5.782   2.261
 3750SOL     OW21583   9.479   0.758   1.366
 3750SOL    HW121584   9.448   0.784   1.275
 3750SOL    HW221585   9.554   0.693   1.358
 3751SOL     OW21586   1.607   5.892   0.300
 3751SOL    HW121587   1.680   5.836   0.337
 3751SOL    HW221588   1.520   5.864   0.340
 3752SOL     OW21589   1.971   5.913   1.864
 3752SOL    HW121590   2.000   5.821   1.891
 3752SOL    HW221591   1.906   5.948   1.932
 3753SOL     OW21592   4.397   4.068   0.915
 3753SOL    HW121593   4.317   4.114   0.876
 3753SOL    HW221594   4.440   4.011   0.844
 3754SOL     OW21595   8.329   2.873   0.334
 3754SOL    HW121596   8.403   2.806   0.328
 3754SOL    HW221597   8.345   2.934   0.412
 3755SOL     OW21598   2.380   4.104   1.151
 3755SOL    HW121599   2.288   4.094   1.188
 3755SOL    HW221600   2.417   4.014   1.127
 3756SOL     OW21601   8.279   4.564   0.268
 3756SOL    HW121602   8.239   4.624   0.337
 3756SOL    HW221603   8.214   4.551   0.194
 3757SOL     OW21604   2.232   5.613   0.495
 3757SOL    HW121605   2.250   5.711   0.484
 3757SOL    HW221606   2.313   5.561   0.468
 3758SOL     OW21607   2.282   0.802   1.657
 3758SOL    HW121608   2.279   0.780   1.559
 3758SOL    HW221609   2.211   0.870   1.678
 3759SOL     OW21610   0.202   7.442   2.354
 3759SOL    HW121611   0.146   7.460   2.273
 3759SOL    HW221612   0.199   7.345   2.376
 3760SOL     OW21613   0.091   6.871   3.057
 3760SOL    HW121614   0.177   6.824   3.036
 3760SOL    HW221615   0.053   6.834   3.143
 3761SOL     OW21616   7.564   8.386   1.473
 3761SOL    HW121617   7.549   8.469   1.527
 3761SOL    HW221618   7.656   8.352   1.488
 3762SOL     OW21619   3.832   8.607   0.857
 3762SOL    HW121620   3.789   8.518   0.875
 3762SOL    HW221621   3.762   8.673   0.829
 3763SOL     OW21622   4.231   3.417   2.953
 3763SOL    HW121623   4.262   3.414   2.858
 3763SOL    HW221624   4.186   3.330   2.976
 3764SOL     OW21625   0.366   9.161   1.071
 3764SOL    HW121626   0.430   9.204   1.008
 3764SOL    HW221627   0.414   9.136   1.156
 3765SOL     OW21628   7.719   5.145   1.476
 3765SOL    HW121629   7.811   5.162   1.508
 3765SOL    HW221630   7.653   5.187   1.538
 3766SOL     OW21631   9.753   2.692   2.453
 3766SOL    HW121632   9.797   2.721   2.538
 3766SOL    HW221633   9.822   2.686   2.381
 3767SOL     OW21634   8.844   5.017   2.733
 3767SOL    HW121635   8.808   5.081   2.800
 3767SOL    HW221636   8.885   4.939   2.780
 3768SOL     OW21637   7.807   0.744   0.894
 3768SOL    HW121638   7.742   0.683   0.849
 3768SOL    HW221639   7.835   0.703   0.982
 3769SOL     OW21640   8.987   8.819   2.767
 3769SOL    HW121641   8.915   8.763   2.806
 3769SOL    HW221642   8.964   8.842   2.672
 3770SOL     OW21643   0.895   7.769   0.109
 3770SOL    HW121644   0.989   7.748   0.081
 3770SOL    HW221645   0.891   7.861   0.148
 3771SOL     OW21646   0.461   0.588   1.016
 3771SOL    HW121647   0.538   0.546   0.969
 3771SOL    HW221648   0.396   0.517   1.044
 3772SOL     OW21649   8.395   9.949   1.209
 3772SOL    HW121650   8.348   9.976   1.293
 3772SOL    HW221651   8.363   9.859   1.180
 3773SOL     OW21652   0.177   8.171   2.648
 3773SOL    HW121653   0.236   8.117   2.707
 3773SOL    HW221654   0.154   8.119   2.566
 3774SOL     OW21655   8.663   3.568   1.001
 3774SOL    HW121656   8.751   3.615   1.008
 3774SOL    HW221657   8.589   3.635   1.008
 3775SOL     OW21658   0.890   6.549   0.246
 3775SOL    HW121659   0.974   6.587   0.207
 3775SOL    HW221660   0.813   6.571   0.187
 3776SOL     OW21661   3.510   2.626   0.967
 3776SOL    HW121662   3.431   2.668   1.010
 3776SOL    HW221663   3.485   2.588   0.878
 3777SOL     OW21664   2.141   1.335   0.952
 3777SOL    HW121665   2.102   1.359   0.863
 3777SOL    HW221666   2.239   1.320   0.943
 3778SOL     OW21667   1.877   8.261   0.169
 3778SOL    HW121668   1.799   8.311   0.207
 3778SOL    HW221669   1.909   8.194   0.235
 3779SOL     OW21670   8.799   7.469   2.425
 3779SOL    HW121671   8.835   7.388   2.378
 3779SOL    HW221672   8.700   7.461   2.435
 3780SOL     OW21673   4.594   9.470   0.299
 3780SOL    HW121674   4.594   9.408   0.220
 3780SOL    HW221675   4.574   9.418   0.382
 3781SOL     OW21676   2.604   8.167   1.699
 3781SOL    HW121677   2.609   8.183   1.798
 3781SOL    HW221678   2.565   8.247   1.654
 3782SOL     OW21679   0.900   4.241   1.263
 3782SOL    HW121680   0.958   4.320   1.242
 3782SOL    HW221681   0.955   4.172   1.311
 3783SOL     OW21682   4.161   1.997   2.390
 3783SOL    HW121683   4.213   1.958   2.467
 3783SOL    HW221684   4.224   2.037   2.324
 3784SOL     OW21685   2.875   9.063   2.408
 3784SOL    HW121686   2.857   9.150   2.454
 3784SOL    HW221687   2.946   9.013   2.458
 3785SOL     OW21688   8.695   7.733   2.726
 3785SOL    HW121689   8.655   7.641   2.721
 3785SOL    HW221690   8.645   7.794   2.665
 3786SOL     OW21691   1.051   2.233   2.254
 3786SOL    HW121692   1.147   2.215   2.233
 3786SOL    HW221693   1.015   2.157   2.309
 3787SOL     OW21694   9.122   1.092   0.892
 3787SOL    HW121695   9.047   1.068   0.953
 3787SOL    HW221696   9.135   1.019   0.825
 3788SOL     OW21697   2.453   6.753   1.339
 3788SOL    HW121698   2.457   6.746   1.240
 3788SOL    HW221699   2.449   6.849   1.366
 3789SOL     OW21700   1.740   0.793   0.059
 3789SOL    HW121701   1.722   0.891   0.055
 3789SOL    HW221702   1.669   0.749   0.114
 3790SOL     OW21703   8.277   3.187   1.403
 3790SOL    HW121704   8.323   3.138   1.477
 3790SOL    HW221705   8.204   3.131   1.365
 3791SOL     OW21706   2.639   9.777   3.122
 3791SOL    HW121707   2.549   9.819   3.129
 3791SOL    HW221708   2.709   9.848   3.133
 3792SOL     OW21709   8.620   4.135   2.251
 3792SOL    HW121710   8.677   4.151   2.171
 3792SOL    HW221711   8.549   4.067   2.229
 3793SOL     OW21712   4.503   5.080   2.830
 3793SOL    HW121713   4.583   5.127   2.868
 3793SOL    HW221714   4.533   4.994   2.787
 3794SOL     OW21715   9.042   2.955   2.256
 3794SOL    HW121716   8.978   2.878   2.260
 3794SOL    HW221717   9.136   2.920   2.251
 3795SOL     OW21718   5.050   8.892   2.632
 3795SOL    HW121719   4.950   8.895   2.645
 3795SOL    HW221720   5.094   8.874   2.720
 3796SOL     OW21721   1.146   6.810   1.645
 3796SOL    HW121722   1.230   6.828   1.696
 3796SOL    HW221723   1.076   6.774   1.707
 3797SOL     OW21724   9.057   5.321   0.060
 3797SOL    HW121725   8.994   5.324   4.023
 3797SOL    HW221726   9.044   5.402   0.117
 3798SOL     OW21727   4.332   7.817   0.639
 3798SOL    HW121728   4.266   7.745   0.615
 3798SOL    HW221729   4.340   7.880   0.562
 3799SOL     OW21730   3.355   1.559   2.072
 3799SOL    HW121731   3.370   1.565   1.973
 3799SOL    HW221732   3.257   1.555   2.091
 3800SOL     OW21733   1.161   5.453   2.564
 3800SOL    HW121734   1.065   5.426   2.562
 3800SOL    HW221735   1.167   5.552   2.571
 3801SOL     OW21736   8.871   6.333   2.532
 3801SOL    HW121737   8.807   6.298   2.463
 3801SOL    HW221738   8.916   6.415   2.498
 3802SOL     OW21739   7.637   6.248   3.036
 3802SOL    HW121740   7.572   6.311   3.080
 3802SOL    HW221741   7.606   6.154   3.048
 3803SOL     OW21742   8.887   9.200   2.679
 3803SOL    HW121743   8.960   9.154   2.729
 3803SOL    HW221744   8.798   9.166   2.710
 3804SOL     OW21745   8.459   2.094   2.686
 3804SOL    HW121746   8.517   2.168   2.719
 3804SOL    HW221747   8.383   2.132   2.633
 3805SOL     OW21748   0.315   1.699   2.494
 3805SOL    HW121749   0.392   1.730   2.439
 3805SOL    HW221750   0.343   1.620   2.549
 3806SOL     OW21751   2.679   5.541   0.777
 3806SOL    HW121752   2.680   5.548   0.677
 3806SOL    HW221753   2.588   5.564   0.811
 3807SOL     OW21754   8.885   5.398   2.767
 3807SOL    HW121755   8.945   5.447   2.703
 3807SOL    HW221756   8.792   5.398   2.731
 3808SOL     OW21757   8.207   1.304   2.542
 3808SOL    HW121758   8.220   1.399   2.511
 3808SOL    HW221759   8.244   1.241   2.474
 3809SOL     OW21760   3.525   9.393   1.232
 3809SOL    HW121761   3.585   9.380   1.311
 3809SOL    HW221762   3.575   9.441   1.160
 3810SOL     OW21763   0.279   3.982   1.316
 3810SOL    HW121764   0.373   3.948   1.312
 3810SOL    HW221765   0.245   3.995   1.223
 3811SOL     OW21766   0.387   0.418   1.759
 3811SOL    HW121767   0.326   0.477   1.812
 3811SOL    HW221768   0.366   0.322   1.778
 3812SOL     OW21769   2.032   5.353   2.540
 3812SOL    HW121770   1.954   5.292   2.557
 3812SOL    HW221771   2.008   5.421   2.471
 3813SOL     OW21772   3.176   7.810   0.604
 3813SOL    HW121773   3.077   7.808   0.619
 3813SOL    HW221774   3.196   7.869   0.526
 3814SOL     OW21775   0.896   7.513   1.526
 3814SOL    HW121776   0.934   7.500   1.618
 3814SOL    HW221777   0.948   7.457   1.461
 3815SOL     OW21778   4.391   4.789   2.559
 3815SOL    HW121779   4.373   4.718   2.491
 3815SOL    HW221780   4.343   4.873   2.533
 3816SOL     OW21781   1.841   9.334   2.440
 3816SOL    HW121782   1.885   9.274   2.372
 3816SOL    HW221783   1.743   9.313   2.444
 3817SOL     OW21784   4.329   7.042   0.261
 3817SOL    HW121785   4.329   7.021   0.163
 3817SOL    HW221786   4.358   7.137   0.274
 3818SOL     OW21787   0.505   1.436   0.451
 3818SOL    HW121788   0.465   1.368   0.513
 3818SOL    HW221789   0.582   1.481   0.496
 3819SOL     OW21790   3.540   4.330   1.583
 3819SOL    HW121791   3.567   4.369   1.671
 3819SOL    HW221792   3.449   4.289   1.592
 3820SOL     OW21793   9.587   3.490   1.914
 3820SOL    HW121794   9.615   3.469   2.008
 3820SOL    HW221795   9.639   3.432   1.850
 3821SOL     OW21796   7.461   0.041   2.803
 3821SOL    HW121797   7.520   0.122   2.807
 3821SOL    HW221798   7.511   9.961   2.835
 3822SOL     OW21799   0.877   2.034   0.562
 3822SOL    HW121800   0.943   2.000   0.629
 3822SOL    HW221801   0.850   2.127   0.585
 3823SOL     OW21802   0.998   3.999   0.483
 3823SOL    HW121803   1.059   4.000   0.403
 3823SOL    HW221804   0.968   4.092   0.504
 3824SOL     OW21805   1.592   1.115   2.502
 3824SOL    HW121806   1.620   1.162   2.419
 3824SOL    HW221807   1.623   1.020   2.499
 3825SOL     OW21808   3.184   9.600   2.614
 3825SOL    HW121809   3.201   9.657   2.534
 3825SOL    HW221810   3.266   9.597   2.671
 3826SOL     OW21811   0.966   5.918   2.251
 3826SOL    HW121812   0.887   5.939   2.308
 3826SOL    HW221813   0.935   5.877   2.165
 3827SOL     OW21814   8.211   7.383   0.626
 3827SOL    HW121815   8.172   7.469   0.592
 3827SOL    HW221816   8.251   7.398   0.716
 3828SOL     OW21817   9.734   0.630   1.808
 3828SOL    HW121818   9.759   0.569   1.884
 3828SOL    HW221819   9.786   0.715   1.815
 3829SOL     OW21820   8.780   0.367   0.803
 3829SOL    HW121821   8.787   0.289   0.865
 3829SOL    HW221822   8.791   0.335   0.709
 3830SOL     OW21823   2.856   2.211   1.218
 3830SOL    HW121824   2.902   2.185   1.303
 3830SOL    HW221825   2.924   2.217   1.144
 3831SOL     OW21826   8.267   8.475   1.719
 3831SOL    HW121827   8.334   8.491   1.647
 3831SOL    HW221828   8.314   8.465   1.807
 3832SOL     OW21829   3.863   8.739   2.037
 3832SOL    HW121830   3.905   8.662   1.989
 3832SOL    HW221831   3.839   8.810   1.971
 3833SOL     OW21832   2.856   0.245   0.497
 3833SOL    HW121833   2.786   0.240   0.568
 3833SOL    HW221834   2.874   0.153   0.462
 3834SOL     OW21835   4.444   3.689   0.359
 3834SOL    HW121836   4.467   3.611   0.418
 3834SOL    HW221837   4.351   3.719   0.378
 3835SOL     OW21838   0.314   4.782   2.069
 3835SOL    HW121839   0.235   4.733   2.032
 3835SOL    HW221840   0.382   4.715   2.100
 3836SOL     OW21841   1.739   6.962   0.622
 3836SOL    HW121842   1.763   7.037   0.560
 3836SOL    HW221843   1.821   6.907   0.641
 3837SOL     OW21844   8.381   6.454   0.428
 3837SOL    HW121845   8.406   6.543   0.467
 3837SOL    HW221846   8.282   6.451   0.415
 3838SOL     OW21847   2.582   9.085   0.047
 3838SOL    HW121848   2.599   9.072   3.990
 3838SOL    HW221849   2.543   9.176   0.062
 3839SOL     OW21850   3.217   2.000   1.015
 3839SOL    HW121851   3.228   1.996   0.916
 3839SOL    HW221852   3.307   2.005   1.058
 3840SOL     OW21853   4.800   7.956   2.506
 3840SOL    HW121854   4.778   8.008   2.423
 3840SOL    HW221855   4.742   7.988   2.581
 3841SOL     OW21856   0.692   6.041   1.586
 3841SOL    HW121857   0.656   6.134   1.578
 3841SOL    HW221858   0.741   6.017   1.503
 3842SOL     OW21859   7.630   9.564   0.561
 3842SOL    HW121860   7.629   9.617   0.476
 3842SOL    HW221861   7.552   9.501   0.562
 3843SOL     OW21862   0.165   3.352   0.236
 3843SOL    HW121863   0.201   3.311   0.320
 3843SOL    HW221864   0.153   3.450   0.250
 3844SOL     OW21865   8.021   6.216   0.384
 3844SOL    HW121866   7.948   6.248   0.324
 3844SOL    HW221867   8.065   6.136   0.342
 3845SOL     OW21868   0.029   9.497   0.203
 3845SOL    HW121869   0.110   9.442   0.223
 3845SOL    HW221870   9.957   9.439   0.164
 3846SOL     OW21871   1.077   8.914   1.849
 3846SOL    HW121872   0.997   8.871   1.808
 3846SOL    HW221873   1.073   8.906   1.948
 3847SOL     OW21874   4.506   3.280   2.118
 3847SOL    HW121875   4.582   3.286   2.054
 3847SOL    HW221876   4.448   3.361   2.108
 3848SOL     OW21877   2.055   5.211   1.635
 3848SOL    HW121878   1.964   5.186   1.604
 3848SOL    HW221879   2.112   5.238   1.557
 3849SOL     OW21880   2.334   9.700   0.379
 3849SOL    HW121881   2.421   9.675   0.337
 3849SOL    HW221882   2.264   9.632   0.354
 3850SOL     OW21883   2.639   9.657   1.984
 3850SOL    HW121884   2.629   9.558   1.972
 3850SOL    HW221885   2.588   9.687   2.064
 3851SOL     OW21886   2.786   2.900   2.597
 3851SOL    HW121887   2.705   2.958   2.606
 3851SOL    HW221888   2.781   2.847   2.513
 3852SOL     OW21889   8.362   7.578   0.361
 3852SOL    HW121890   8.279   7.596   0.414
 3852SOL    HW221891   8.442   7.587   0.421
 3853SOL     OW21892   9.516   1.815   1.326
 3853SOL    HW121893   9.596   1.874   1.313
 3853SOL    HW221894   9.447   1.837   1.257
 3854SOL     OW21895   8.736   9.445   0.486
 3854SOL    HW121896   8.701   9.460   0.578
 3854SOL    HW221897   8.819   9.389   0.491
 3855SOL     OW21898   2.890   4.173   0.511
 3855SOL    HW121899   2.795   4.145   0.498
 3855SOL    HW221900   2.919   4.228   0.433
 3856SOL     OW21901   9.131   6.966   1.267
 3856SOL    HW121902   9.032   6.973   1.261
 3856SOL    HW221903   9.158   6.870   1.268
 3857SOL     OW21904   8.274   1.256   0.662
 3857SOL    HW121905   8.237   1.330   0.606
 3857SOL    HW221906   8.328   1.195   0.605
 3858SOL     OW21907   5.567   1.119   1.901
 3858SOL    HW121908   5.515   1.184   1.846
 3858SOL    HW221909   5.574   1.032   1.851
 3859SOL     OW21910   1.860   1.692   1.809
 3859SOL    HW121911   1.913   1.688   1.725
 3859SOL    HW221912   1.763   1.707   1.787
 3860SOL     OW21913   9.486   5.341   0.299
 3860SOL    HW121914   9.467   5.423   0.352
 3860SOL    HW221915   9.436   5.346   0.212
 3861SOL     OW21916   3.320   5.626   0.332
 3861SOL    HW121917   3.415   5.653   0.316
 3861SOL    HW221918   3.301   5.542   0.281
 3862SOL     OW21919   1.223   9.453   2.214
 3862SOL    HW121920   1.128   9.472   2.236
 3862SOL    HW221921   1.229   9.364   2.167
 3863SOL     OW21922   0.986   0.118   2.351
 3863SOL    HW121923   0.959   0.207   2.388
 3863SOL    HW221924   0.935   0.100   2.267
 3864SOL     OW21925   4.426   1.262   0.996
 3864SOL    HW121926   4.490   1.184   1.000
 3864SOL    HW221927   4.442   1.322   1.074
 3865SOL     OW21928   9.669   0.542   0.677
 3865SOL    HW121929   9.580   0.560   0.720
 3865SOL    HW221930   9.704   0.454   0.708
 3866SOL     OW21931   9.836   7.233   0.836
 3866SOL    HW121932   9.823   7.242   0.935
 3866SOL    HW221933   9.775   7.162   0.801
 3867SOL     OW21934   4.810   7.718   1.599
 3867SOL    HW121935   4.848   7.638   1.553
 3867SOL    HW221936   4.790   7.696   1.694
 3868SOL     OW21937   0.077   5.281   0.049
 3868SOL    HW121938   0.022   5.201   0.072
 3868SOL    HW221939   0.044   5.321   4.004
 3869SOL     OW21940   8.127   5.855   1.529
 3869SOL    HW121941   8.104   5.824   1.437
 3869SOL    HW221942   8.160   5.949   1.525
 3870SOL     OW21943   8.794   9.436   1.412
 3870SOL    HW121944   8.706   9.394   1.389
 3870SOL    HW221945   8.816   9.506   1.344
 3871SOL     OW21946   4.777   2.701   1.202
 3871SOL    HW121947   4.798   2.613   1.159
 3871SOL    HW221948   4.702   2.745   1.153
 3872SOL     OW21949   1.051   5.677   0.735
 3872SOL    HW121950   1.131   5.637   0.690
 3872SOL    HW221951   0.986   5.604   0.759
 3873SOL     OW21952   0.917   5.975   1.795
 3873SOL    HW121953   0.871   5.935   1.715
 3873SOL    HW221954   0.992   6.034   1.764
 3874SOL     OW21955   2.397   0.292   0.671
 3874SOL    HW121956   2.304   0.269   0.643
 3874SOL    HW221957   2.424   0.378   0.628
 3875SOL     OW21958   1.911   8.060   1.378
 3875SOL    HW121959   1.818   8.091   1.398
 3875SOL    HW221960   1.955   8.125   1.317
 3876SOL     OW21961   1.519   6.853   0.492
 3876SOL    HW121962   1.498   6.757   0.509
 3876SOL    HW221963   1.594   6.882   0.552
 3877SOL     OW21964   9.471   8.899   1.897
 3877SOL    HW121965   9.390   8.957   1.888
 3877SOL    HW221966   9.446   8.815   1.945
 3878SOL     OW21967   3.802   7.341   2.017
 3878SOL    HW121968   3.862   7.264   1.992
 3878SOL    HW221969   3.840   7.390   2.095
 3879SOL     OW21970   8.228   1.756   0.778
 3879SOL    HW121971   8.132   1.727   0.776
 3879SOL    HW221972   8.274   1.715   0.856
 3880SOL     OW21973   4.610   0.163   1.940
 3880SOL    HW121974   4.683   0.097   1.921
 3880SOL    HW221975   4.523   0.114   1.952
 3881SOL     OW21976   8.557   6.565   0.725
 3881SOL    HW121977   8.538   6.469   0.746
 3881SOL    HW221978   8.655   6.576   0.710
 3882SOL     OW21979   1.720   2.417   1.397
 3882SOL    HW121980   1.639   2.426   1.456
 3882SOL    HW221981   1.802   2.435   1.451
 3883SOL     OW21982   4.159   3.846   0.728
 3883SOL    HW121983   4.122   3.791   0.803
 3883SOL    HW221984   4.119   3.938   0.732
 3884SOL     OW21985   8.838   2.834   1.989
 3884SOL    HW121986   8.918   2.825   1.930
 3884SOL    HW221987   8.784   2.914   1.962
 3885SOL     OW21988   3.324   7.557   3.024
 3885SOL    HW121989   3.233   7.597   3.013
 3885SOL    HW221990   3.317   7.458   3.029
 3886SOL     OW21991   3.287   3.491   2.613
 3886SOL    HW121992   3.281   3.430   2.534
 3886SOL    HW221993   3.364   3.554   2.600
 3887SOL     OW21994   2.535   7.276   2.068
 3887SOL    HW121995   2.600   7.224   2.012
 3887SOL    HW221996   2.532   7.371   2.036
 3888SOL     OW21997   3.946   2.552   0.729
 3888SOL    HW121998   4.015   2.614   0.766
 3888SOL    HW221999   3.880   2.529   0.800
 3889SOL     OW22000   9.109   4.131   2.295
 3889SOL    HW122001   9.038   4.114   2.226
 3889SOL    HW222002   9.076   4.099   2.384
 3890SOL     OW22003   0.741   7.012   0.938
 3890SOL    HW122004   0.749   7.033   0.841
 3890SOL    HW222005   0.813   6.948   0.964
 3891SOL     OW22006   8.317   8.635   2.462
 3891SOL    HW122007   8.368   8.702   2.409
 3891SOL    HW222008   8.219   8.653   2.455
 3892SOL     OW22009   7.914   6.948   2.048
 3892SOL    HW122010   7.844   6.983   1.986
 3892SOL    HW222011   7.961   6.871   2.004
 3893SOL     OW22012   7.614   0.541   3.007
 3893SOL    HW122013   7.692   0.597   2.980
 3893SOL    HW222014   7.548   0.537   2.932
 3894SOL     OW22015   3.732   2.504   1.692
 3894SOL    HW122016   3.725   2.516   1.791
 3894SOL    HW222017   3.653   2.546   1.647
 3895SOL     OW22018   0.429   6.451   1.222
 3895SOL    HW122019   0.333   6.445   1.198
 3895SOL    HW222020   0.438   6.472   1.320
 3896SOL     OW22021   1.904   6.827   1.794
 3896SOL    HW122022   1.920   6.733   1.825
 3896SOL    HW222023   1.980   6.885   1.823
 3897SOL     OW22024   8.463   5.335   1.665
 3897SOL    HW122025   8.399   5.389   1.718
 3897SOL    HW222026   8.507   5.267   1.724
 3898SOL     OW22027   9.243   5.036   2.882
 3898SOL    HW122028   9.256   4.949   2.929
 3898SOL    HW222029   9.305   5.040   2.803
 3899SOL     OW22030   1.777   3.252   2.835
 3899SOL    HW122031   1.863   3.220   2.797
 3899SOL    HW222032   1.793   3.330   2.895
 3900SOL     OW22033   1.872   8.967   2.608
 3900SOL    HW122034   1.784   9.010   2.590
 3900SOL    HW222035   1.935   8.985   2.532
 3901SOL     OW22036   9.359   6.190   0.448
 3901SOL    HW122037   9.322   6.171   0.357
 3901SOL    HW222038   9.413   6.112   0.479
 3902SOL     OW22039   2.945   7.447   0.688
 3902SOL    HW122040   2.922   7.383   0.762
 3902SOL    HW222041   3.040   7.476   0.697
 3903SOL     OW22042   7.511   0.414   0.950
 3903SOL    HW122043   7.540   0.485   0.885
 3903SOL    HW222044   7.431   0.367   0.914
 3904SOL     OW22045   9.882   3.384   2.780
 3904SOL    HW122046   9.844   3.462   2.731
 3904SOL    HW222047   9.982   3.387   2.775
 3905SOL     OW22048   0.897   9.927   0.756
 3905SOL    HW122049   0.855   9.934   0.847
 3905SOL    HW222050   0.887   9.833   0.723
 3906SOL     OW22051   2.103   7.440   2.993
 3906SOL    HW122052   2.024   7.379   3.006
 3906SOL    HW222053   2.139   7.428   2.901
 3907SOL     OW22054   7.755   8.515   0.903
 3907SOL    HW122055   7.830   8.484   0.961
 3907SOL    HW222056   7.736   8.447   0.833
 3908SOL     OW22057   3.258   9.448   1.284
 3908SOL    HW122058   3.355   9.424   1.277
 3908SOL    HW222059   3.210   9.421   1.201
 3909SOL     OW22060   4.990   8.619   0.750
 3909SOL    HW122061   4.907   8.639   0.802
 3909SOL    HW222062   5.042   8.703   0.736
 3910SOL     OW22063   1.250   6.765   2.865
 3910SOL    HW122064   1.239   6.788   2.768
 3910SOL    HW222065   1.166   6.786   2.914
 3911SOL     OW22066   1.109   3.560   1.013
 3911SOL    HW122067   1.078   3.633   0.953
 3911SOL    HW222068   1.208   3.552   1.007
 3912SOL     OW22069   9.324   5.473   2.149
 3912SOL    HW122070   9.304   5.479   2.247
 3912SOL    HW222071   9.415   5.433   2.136
 3913SOL     OW22072   6.596   9.378   2.968
 3913SOL    HW122073   6.539   9.328   2.903
 3913SOL    HW222074   6.538   9.428   3.033
 3914SOL     OW22075   1.695   4.383   2.269
 3914SOL    HW122076   1.644   4.297   2.270
 3914SOL    HW222077   1.787   4.369   2.308
 3915SOL     OW22078   9.933   1.658   1.439
 3915SOL    HW122079   9.908   1.572   1.394
 3915SOL    HW222080   9.860   1.687   1.500
 3916SOL     OW22081   2.881   5.041   0.355
 3916SOL    HW122082   2.848   5.082   0.270
 3916SOL    HW222083   2.980   5.054   0.362
 3917SOL     OW22084   4.239   5.167   2.872
 3917SOL    HW122085   4.194   5.152   2.960
 3917SOL    HW222086   4.333   5.131   2.876
 3918SOL     OW22087   9.867   5.789   2.427
 3918SOL    HW122088   9.915   5.857   2.371
 3918SOL    HW222089   9.865   5.702   2.379
 3919SOL     OW22090   1.411   6.378   0.682
 3919SOL    HW122091   1.317   6.353   0.658
 3919SOL    HW222092   1.417   6.397   0.780
 3920SOL     OW22093   8.659   0.660   1.627
 3920SOL    HW122094   8.683   0.756   1.618
 3920SOL    HW222095   8.743   0.606   1.639
 3921SOL     OW22096   1.174   3.868   1.952
 3921SOL    HW122097   1.148   3.786   1.901
 3921SOL    HW222098   1.113   3.879   2.031
 3922SOL     OW22099   7.907   6.549   3.086
 3922SOL    HW122100   7.918   6.535   2.988
 3922SOL    HW222101   7.901   6.460   3.132
 3923SOL     OW22102   1.213   4.999   2.153
 3923SOL    HW122103   1.129   5.012   2.207
 3923SOL    HW222104   1.291   5.034   2.205
 3924SOL     OW22105   1.850   7.239   2.032
 3924SOL    HW122106   1.835   7.251   2.130
 3924SOL    HW222107   1.947   7.219   2.015
 3925SOL     OW22108   4.200   3.948   2.139
 3925SOL    HW122109   4.188   3.889   2.219
 3925SOL    HW222110   4.160   4.038   2.158
 3926SOL     OW22111   9.484   4.030   1.807
 3926SOL    HW122112   9.495   4.103   1.874
 3926SOL    HW222113   9.406   3.973   1.832
 3927SOL     OW22114   8.377   4.607   2.261
 3927SOL    HW122115   8.405   4.513   2.280
 3927SOL    HW222116   8.390   4.663   2.343
 3928SOL     OW22117   7.788   0.353   0.731
 3928SOL    HW122118   7.877   0.345   0.687
 3928SOL    HW222119   7.800   0.357   0.831
 3929SOL     OW22120   2.801   0.311   2.194
 3929SOL    HW122121   2.860   0.243   2.152
 3929SOL    HW222122   2.855   0.390   2.223
 3930SOL     OW22123   0.435   7.578   2.291
 3930SOL    HW122124   0.502   7.504   2.282
 3930SOL    HW222125   0.347   7.539   2.319
 3931SOL     OW22126   1.579   9.710   1.322
 3931SOL    HW122127   1.591   9.780   1.392
 3931SOL    HW222128   1.492   9.663   1.336
 3932SOL     OW22129   1.276   2.594   0.576
 3932SOL    HW122130   1.229   2.594   0.488
 3932SOL    HW222131   1.328   2.678   0.586
 3933SOL     OW22132   9.029   8.906   0.560
 3933SOL    HW122133   8.969   8.829   0.540
 3933SOL    HW222134   8.980   8.974   0.614
 3934SOL     OW22135   1.894   0.254   1.161
 3934SOL    HW122136   1.862   0.186   1.095
 3934SOL    HW222137   1.993   0.247   1.171
 3935SOL     OW22138   9.542   7.982   1.213
 3935SOL    HW122139   9.509   7.911   1.151
 3935SOL    HW222140   9.468   8.012   1.272
 3936SOL     OW22141   4.191   1.173   1.792
 3936SOL    HW122142   4.108   1.182   1.736
 3936SOL    HW222143   4.268   1.149   1.733
 3937SOL     OW22144   3.365   8.666   2.208
 3937SOL    HW122145   3.404   8.721   2.134
 3937SOL    HW222146   3.361   8.721   2.292
 3938SOL     OW22147   1.260   1.756   0.982
 3938SOL    HW122148   1.204   1.801   1.051
 3938SOL    HW222149   1.201   1.718   0.910
 3939SOL     OW22150   9.970   9.489   2.441
 3939SOL    HW122151   9.901   9.447   2.383
 3939SOL    HW222152   0.053   9.433   2.441
 3940SOL     OW22153   7.822   0.692   2.066
 3940SOL    HW122154   7.767   0.765   2.025
 3940SOL    HW222155   7.808   0.692   2.165
 3941SOL     OW22156   1.299   4.063   2.270
 3941SOL    HW122157   1.267   4.096   2.359
 3941SOL    HW222158   1.244   4.104   2.198
 3942SOL     OW22159   1.049   1.555   2.901
 3942SOL    HW122160   1.038   1.562   2.802
 3942SOL    HW222161   1.109   1.478   2.923
 3943SOL     OW22162   1.161   2.027   1.790
 3943SOL    HW122163   1.187   1.952   1.851
 3943SOL    HW222164   1.070   2.061   1.815
 3944SOL     OW22165   3.735   8.505   1.258
 3944SOL    HW122166   3.777   8.415   1.270
 3944SOL    HW222167   3.661   8.516   1.325
 3945SOL     OW22168   1.479   3.344   1.143
 3945SOL    HW122169   1.452   3.371   1.236
 3945SOL    HW222170   1.456   3.248   1.128
 3946SOL     OW22171   8.695   5.614   2.276
 3946SOL    HW122172   8.636   5.536   2.255
 3946SOL    HW222173   8.639   5.694   2.297
 3947SOL     OW22174   8.909   9.077   0.746
 3947SOL    HW122175   8.914   9.024   0.831
 3947SOL    HW222176   8.986   9.141   0.742
 3948SOL     OW22177   7.796   8.157   3.083
 3948SOL    HW122178   7.699   8.151   3.108
 3948SOL    HW222179   7.813   8.242   3.033
 3949SOL     OW22180   2.850   0.490   2.949
 3949SOL    HW122181   2.817   0.580   2.919
 3949SOL    HW222182   2.935   0.502   3.000
 3950SOL     OW22183   8.131   5.252   3.020
 3950SOL    HW122184   8.092   5.187   2.956
 3950SOL    HW222185   8.190   5.204   3.085
 3951SOL     OW22186   2.235   1.613   2.769
 3951SOL    HW122187   2.286   1.666   2.837
 3951SOL    HW222188   2.282   1.527   2.751
 3952SOL     OW22189   1.675   9.677   0.317
 3952SOL    HW122190   1.605   9.666   0.247
 3952SOL    HW222191   1.684   9.592   0.369
 3953SOL     OW22192   4.084   3.548   1.584
 3953SOL    HW122193   4.145   3.623   1.606
 3953SOL    HW222194   4.022   3.531   1.661
 3954SOL     OW22195   4.205   5.653   2.251
 3954SOL    HW122196   4.116   5.697   2.262
 3954SOL    HW222197   4.277   5.721   2.264
 3955SOL     OW22198   1.435   8.796   0.387
 3955SOL    HW122199   1.433   8.696   0.378
 3955SOL    HW222200   1.485   8.835   0.309
 3956SOL     OW22201   3.860   1.765   1.194
 3956SOL    HW122202   3.852   1.676   1.238
 3956SOL    HW222203   3.945   1.809   1.223
 3957SOL     OW22204   8.246   5.522   1.757
 3957SOL    HW122205   8.242   5.538   1.659
 3957SOL    HW222206   8.168   5.567   1.801
 3958SOL     OW22207   1.777   4.953   2.680
 3958SOL    HW122208   1.868   4.916   2.697
 3958SOL    HW222209   1.744   4.921   2.591
 3959SOL     OW22210   3.811   1.502   1.296
 3959SOL    HW122211   3.769   1.492   1.206
 3959SOL    HW222212   3.824   1.411   1.337
 3960SOL     OW22213   2.175   3.490   1.269
 3960SOL    HW122214   2.084   3.448   1.267
 3960SOL    HW222215   2.182   3.557   1.195
 3961SOL     OW22216   3.608   0.813   2.906
 3961SOL    HW122217   3.704   0.837   2.919
 3961SOL    HW222218   3.556   0.837   2.988
 3962SOL     OW22219   0.849   2.175   2.614
 3962SOL    HW122220   0.861   2.273   2.633
 3962SOL    HW222221   0.756   2.148   2.638
 3963SOL     OW22222   2.147   4.798   1.102
 3963SOL    HW122223   2.239   4.835   1.091
 3963SOL    HW222224   2.116   4.816   1.196
 3964SOL     OW22225   1.356   7.342   3.044
 3964SOL    HW122226   1.319   7.424   3.087
 3964SOL    HW222227   1.287   7.302   2.984
 3965SOL     OW22228   0.353   6.043   1.618
 3965SOL    HW122229   0.342   6.058   1.520
 3965SOL    HW222230   0.352   5.945   1.636
 3966SOL     OW22231   0.067   5.391   2.221
 3966SOL    HW122232   0.042   5.365   2.128
 3966SOL    HW222233   0.160   5.359   2.240
 3967SOL     OW22234   9.699   0.232   0.049
 3967SOL    HW122235   9.728   0.242   3.994
 3967SOL    HW222236   9.620   0.291   0.066
 3968SOL     OW22237   1.333   6.319   2.494
 3968SOL    HW122238   1.248   6.269   2.511
 3968SOL    HW222239   1.359   6.369   2.576
 3969SOL     OW22240   0.093   5.823   0.871
 3969SOL    HW122241   0.101   5.789   0.777
 3969SOL    HW222242   0.065   5.747   0.931
 3970SOL     OW22243   1.776   7.414   1.831
 3970SOL    HW122244   1.799   7.344   1.899
 3970SOL    HW222245   1.705   7.379   1.770
 3971SOL     OW22246   9.908   8.290   0.333
 3971SOL    HW122247   9.853   8.358   0.380
 3971SOL    HW222248   9.876   8.281   0.238
 3972SOL     OW22249   8.596   4.115   1.579
 3972SOL    HW122250   8.556   4.207   1.574
 3972SOL    HW222251   8.563   4.060   1.503
 3973SOL     OW22252   0.530   2.212   2.912
 3973SOL    HW122253   0.564   2.287   2.968
 3973SOL    HW222254   0.488   2.142   2.970
 3974SOL     OW22255   1.387   1.646   0.569
 3974SOL    HW122256   1.373   1.556   0.527
 3974SOL    HW222257   1.309   1.705   0.548
 3975SOL     OW22258   8.819   4.617   2.619
 3975SOL    HW122259   8.918   4.629   2.632
 3975SOL    HW222260   8.803   4.568   2.534
 3976SOL     OW22261   3.180   1.372   1.449
 3976SOL    HW122262   3.164   1.375   1.548
 3976SOL    HW222263   3.273   1.404   1.430
 3977SOL     OW22264   1.872   6.238   2.483
 3977SOL    HW122265   1.827   6.199   2.563
 3977SOL    HW222266   1.894   6.165   2.418
 3978SOL     OW22267   3.837   3.596   2.500
 3978SOL    HW122268   3.808   3.678   2.549
 3978SOL    HW222269   3.821   3.608   2.402
 3979SOL     OW22270   0.897   1.451   1.535
 3979SOL    HW122271   0.850   1.433   1.621
 3979SOL    HW222272   0.854   1.529   1.489
 3980SOL     OW22273   2.985   8.126   2.427
 3980SOL    HW122274   3.008   8.030   2.445
 3980SOL    HW222275   3.069   8.180   2.420
 3981SOL     OW22276   9.578   8.410   1.581
 3981SOL    HW122277   9.611   8.325   1.621
 3981SOL    HW222278   9.504   8.390   1.517
 3982SOL     OW22279   0.577   6.477   1.743
 3982SOL    HW122280   0.520   6.396   1.760
 3982SOL    HW222281   0.542   6.554   1.796
 3983SOL     OW22282   9.520   0.284   0.372
 3983SOL    HW122283   9.546   0.194   0.338
 3983SOL    HW222284   9.495   0.277   0.469
 3984SOL     OW22285   8.231   1.608   2.232
 3984SOL    HW122286   8.186   1.523   2.204
 3984SOL    HW222287   8.237   1.612   2.332
 3985SOL     OW22288   8.394   3.898   1.927
 3985SOL    HW122289   8.475   3.840   1.926
 3985SOL    HW222290   8.318   3.850   1.884
 3986SOL     OW22291   0.446   5.334   0.691
 3986SOL    HW122292   0.352   5.359   0.716
 3986SOL    HW222293   0.447   5.302   0.596
 3987SOL     OW22294   9.679   2.470   0.463
 3987SOL    HW122295   9.649   2.460   0.558
 3987SOL    HW222296   9.772   2.507   0.461
 3988SOL     OW22297   6.944   8.236   3.060
 3988SOL    HW122298   6.919   8.223   3.156
 3988SOL    HW222299   7.012   8.167   3.034
 3989SOL     OW22300   2.771   1.281   1.725
 3989SOL    HW122301   2.715   1.206   1.691
 3989SOL    HW222302   2.766   1.358   1.661
 3990SOL     OW22303   8.822   3.714   2.393
 3990SOL    HW122304   8.820   3.622   2.355
 3990SOL    HW222305   8.916   3.736   2.421
 3991SOL     OW22306   8.043   3.481   0.229
 3991SOL    HW122307   8.044   3.509   0.325
 3991SOL    HW222308   7.964   3.523   0.184
 3992SOL     OW22309   0.350   5.770   1.682
 3992SOL    HW122310   0.401   5.710   1.621
 3992SOL    HW222311   0.256   5.737   1.690
 3993SOL     OW22312   1.800   3.553   1.706
 3993SOL    HW122313   1.789   3.631   1.767
 3993SOL    HW222314   1.754   3.473   1.744
 3994SOL     OW22315   2.421   0.887   0.714
 3994SOL    HW122316   2.368   0.805   0.735
 3994SOL    HW222317   2.448   0.931   0.800
 3995SOL     OW22318   2.846   1.259   3.073
 3995SOL    HW122319   2.818   1.305   3.158
 3995SOL    HW222320   2.911   1.186   3.094
 3996SOL     OW22321   8.831   6.544   0.683
 3996SOL    HW122322   8.889   6.467   0.707
 3996SOL    HW222323   8.856   6.623   0.739
 3997SOL     OW22324   8.802   0.522   0.152
 3997SOL    HW122325   8.724   0.480   0.104
 3997SOL    HW222326   8.880   0.459   0.148
 3998SOL     OW22327   8.698   4.210   0.867
 3998SOL    HW122328   8.755   4.127   0.872
 3998SOL    HW222329   8.637   4.213   0.945
 3999SOL     OW22330   1.342   9.541   1.302
 3999SOL    HW122331   1.283   9.619   1.279
 3999SOL    HW222332   1.299   9.457   1.270
 4000SOL     OW22333   9.875   4.952   0.575
 4000SOL    HW122334   9.780   4.922   0.564
 4000SOL    HW222335   9.901   5.009   0.498
 4001SOL     OW22336   3.493   3.471   0.408
 4001SOL    HW122337   3.423   3.408   0.373
 4001SOL    HW222338   3.583   3.427   0.403
 4002SOL     OW22339   1.149   1.124   2.771
 4002SOL    HW122340   1.056   1.150   2.744
 4002SOL    HW222341   1.163   1.027   2.751
 4003SOL     OW22342   9.899   7.109   2.149
 4003SOL    HW122343   9.998   7.108   2.139
 4003SOL    HW222344   9.866   7.203   2.154
 4004SOL     OW22345   0.051   0.641   1.156
 4004SOL    HW122346   9.967   0.690   1.182
 4004SOL    HW222347   0.048   0.619   1.059
 4005SOL     OW22348   3.548   2.937   3.002
 4005SOL    HW122349   3.539   2.844   3.036
 4005SOL    HW222350   3.543   2.937   2.902
 4006SOL     OW22351   9.847   9.891   2.636
 4006SOL    HW122352   9.945   9.913   2.632
 4006SOL    HW222353   9.807   9.933   2.717
 4007SOL     OW22354   3.828   4.184   0.160
 4007SOL    HW122355   3.884   4.256   0.201
 4007SOL    HW222356   3.734   4.191   0.194
 4008SOL     OW22357   0.140   4.560   0.851
 4008SOL    HW122358   0.110   4.476   0.805
 4008SOL    HW222359   0.101   4.639   0.804
 4009SOL     OW22360   8.233   7.527   2.528
 4009SOL    HW122361   8.249   7.574   2.442
 4009SOL    HW222362   8.150   7.472   2.522
 4010SOL     OW22363   8.246   5.846   1.945
 4010SOL    HW122364   8.289   5.806   2.026
 4010SOL    HW222365   8.169   5.789   1.916
 4011SOL     OW22366   9.438   3.667   0.915
 4011SOL    HW122367   9.519   3.671   0.856
 4011SOL    HW222368   9.451   3.729   0.993
 4012SOL     OW22369   3.061   7.631   0.974
 4012SOL    HW122370   3.092   7.582   1.056
 4012SOL    HW222371   2.971   7.671   0.991
 4013SOL     OW22372   3.641   8.275   0.359
 4013SOL    HW122373   3.649   8.359   0.307
 4013SOL    HW222374   3.694   8.283   0.444
 4014SOL     OW22375   1.876   2.969   0.297
 4014SOL    HW122376   1.898   3.046   0.238
 4014SOL    HW222377   1.800   2.994   0.358
 4015SOL     OW22378   2.482   9.036   0.633
 4015SOL    HW122379   2.486   8.936   0.632
 4015SOL    HW222380   2.388   9.065   0.617
 4016SOL     OW22381   3.454   0.451   0.179
 4016SOL    HW122382   3.437   0.352   0.179
 4016SOL    HW222383   3.552   0.468   0.166
 4017SOL     OW22384   1.058   8.975   2.799
 4017SOL    HW122385   1.018   9.061   2.766
 4017SOL    HW222386   0.986   8.905   2.805
 4018SOL     OW22387   8.133   0.306   1.112
 4018SOL    HW122388   8.070   0.265   1.046
 4018SOL    HW222389   8.225   0.271   1.096
 4019SOL     OW22390   4.424   2.216   0.613
 4019SOL    HW122391   4.358   2.210   0.688
 4019SOL    HW222392   4.384   2.267   0.537
 4020SOL     OW22393   2.033   3.392   1.708
 4020SOL    HW122394   1.951   3.449   1.705
 4020SOL    HW222395   2.011   3.303   1.748
 4021SOL     OW22396   0.312   4.437   1.346
 4021SOL    HW122397   0.261   4.476   1.423
 4021SOL    HW222398   0.264   4.456   1.260
 4022SOL     OW22399   9.511   2.689   1.107
 4022SOL    HW122400   9.453   2.724   1.033
 4022SOL    HW222401   9.454   2.650   1.179
 4023SOL     OW22402   5.286   8.932   2.499
 4023SOL    HW122403   5.196   8.915   2.541
 4023SOL    HW222404   5.313   8.852   2.446
 4024SOL     OW22405   9.844   4.098   1.584
 4024SOL    HW122406   9.882   4.010   1.556
 4024SOL    HW222407   9.887   4.126   1.670
 4025SOL     OW22408   2.640   2.571   0.926
 4025SOL    HW122409   2.629   2.543   1.021
 4025SOL    HW222410   2.729   2.540   0.892
 4026SOL     OW22411   0.379   4.811   0.082
 4026SOL    HW122412   0.284   4.791   0.058
 4026SOL    HW222413   0.429   4.840   0.001
 4027SOL     OW22414   9.180   5.509   3.002
 4027SOL    HW122415   9.151   5.415   2.982
 4027SOL    HW222416   9.131   5.542   3.083
 4028SOL     OW22417   3.897   8.115   1.848
 4028SOL    HW122418   3.948   8.167   1.779
 4028SOL    HW222419   3.930   8.020   1.848
 4029SOL     OW22420   2.607   9.036   2.365
 4029SOL    HW122421   2.585   9.131   2.345
 4029SOL    HW222422   2.706   9.027   2.380
 4030SOL     OW22423   1.711   3.663   3.116
 4030SOL    HW122424   1.715   3.762   3.130
 4030SOL    HW222425   1.645   3.642   3.044
 4031SOL     OW22426   9.681   5.322   2.156
 4031SOL    HW122427   9.717   5.248   2.099
 4031SOL    HW222428   9.666   5.288   2.249
 4032SOL     OW22429   2.722   6.513   1.925
 4032SOL    HW122430   2.750   6.573   1.849
 4032SOL    HW222431   2.788   6.439   1.935
 4033SOL     OW22432   3.883   1.994   2.718
 4033SOL    HW122433   3.814   2.064   2.737
 4033SOL    HW222434   3.838   1.912   2.684
 4034SOL     OW22435   7.516   9.145   1.189
 4034SOL    HW122436   7.541   9.048   1.193
 4034SOL    HW222437   7.470   9.171   1.274
 4035SOL     OW22438   8.115   5.859   1.035
 4035SOL    HW122439   8.037   5.838   0.976
 4035SOL    HW222440   8.138   5.956   1.027
 4036SOL     OW22441   4.866   9.862   1.662
 4036SOL    HW122442   4.910   9.773   1.675
 4036SOL    HW222443   4.854   9.907   1.750
 4037SOL     OW22444   3.392   1.282   0.823
 4037SOL    HW122445   3.329   1.211   0.793
 4037SOL    HW222446   3.374   1.305   0.919
 4038SOL     OW22447   4.909   9.624   2.722
 4038SOL    HW122448   4.934   9.720   2.706
 4038SOL    HW222449   4.980   9.579   2.775
 4039SOL     OW22450   3.968   0.331   1.975
 4039SOL    HW122451   3.882   0.280   1.970
 4039SOL    HW222452   3.951   0.420   2.018
 4040SOL     OW22453   8.015   1.964   0.626
 4040SOL    HW122454   8.038   1.992   0.719
 4040SOL    HW222455   8.089   1.989   0.564
 4041SOL     OW22456   2.351   7.874   1.917
 4041SOL    HW122457   2.260   7.833   1.919
 4041SOL    HW222458   2.377   7.895   1.822
 4042SOL     OW22459   6.200   7.735   2.710
 4042SOL    HW122460   6.222   7.831   2.728
 4042SOL    HW222461   6.200   7.684   2.796
 4043SOL     OW22462   0.861   3.759   0.125
 4043SOL    HW122463   0.843   3.683   0.188
 4043SOL    HW222464   0.794   3.832   0.140
 4044SOL     OW22465   3.488   2.572   2.619
 4044SOL    HW122466   3.413   2.576   2.684
 4044SOL    HW222467   3.568   2.619   2.656
 4045SOL     OW22468   2.020   7.265   2.459
 4045SOL    HW122469   1.994   7.234   2.550
 4045SOL    HW222470   2.047   7.361   2.463
 4046SOL     OW22471   9.370   8.101   0.209
 4046SOL    HW122472   9.329   8.032   0.148
 4046SOL    HW222473   9.466   8.077   0.226
 4047SOL     OW22474   3.952   9.802   2.250
 4047SOL    HW122475   3.880   9.783   2.317
 4047SOL    HW222476   3.913   9.802   2.158
 4048SOL     OW22477   0.496   7.047   2.954
 4048SOL    HW122478   0.521   7.120   3.017
 4048SOL    HW222479   0.579   7.005   2.917
 4049SOL     OW22480   2.130   4.061   1.245
 4049SOL    HW122481   2.094   4.007   1.169
 4049SOL    HW222482   2.072   4.142   1.259
 4050SOL     OW22483   1.478   9.488   3.047
 4050SOL    HW122484   1.422   9.447   2.975
 4050SOL    HW222485   1.525   9.415   3.098
 4051SOL     OW22486   9.648   9.237   1.796
 4051SOL    HW122487   9.587   9.314   1.776
 4051SOL    HW222488   9.672   9.190   1.711
 4052SOL     OW22489   9.259   8.814   0.684
 4052SOL    HW122490   9.174   8.852   0.647
 4052SOL    HW222491   9.267   8.718   0.657
 4053SOL     OW22492   1.865   1.141   0.188
 4053SOL    HW122493   1.791   1.203   0.161
 4053SOL    HW222494   1.856   1.119   0.285
 4054SOL     OW22495   4.211   8.669   0.496
 4054SOL    HW122496   4.286   8.634   0.552
 4054SOL    HW222497   4.246   8.700   0.407
 4055SOL     OW22498   9.347   1.178   1.022
 4055SOL    HW122499   9.267   1.147   0.971
 4055SOL    HW222500   9.430   1.165   0.967
 4056SOL     OW22501   8.669   9.951   1.124
 4056SOL    HW122502   8.670   9.859   1.085
 4056SOL    HW222503   8.577   9.972   1.157
 4057SOL     OW22504   2.964   0.116   2.066
 4057SOL    HW122505   3.061   0.093   2.064
 4057SOL    HW222506   2.910   0.033   2.051
 4058SOL     OW22507   4.811   8.422   2.163
 4058SOL    HW122508   4.876   8.388   2.232
 4058SOL    HW222509   4.845   8.401   2.072
 4059SOL     OW22510   6.107   8.863   2.522
 4059SOL    HW122511   6.029   8.925   2.521
 4059SOL    HW222512   6.080   8.775   2.483
 4060SOL     OW22513   3.441   9.755   0.912
 4060SOL    HW122514   3.483   9.845   0.913
 4060SOL    HW222515   3.389   9.741   0.996
 4061SOL     OW22516   6.578   7.219   2.798
 4061SOL    HW122517   6.515   7.276   2.850
 4061SOL    HW222518   6.671   7.232   2.832
 4062SOL     OW22519   1.387   3.805   1.099
 4062SOL    HW122520   1.385   3.714   1.057
 4062SOL    HW222521   1.329   3.868   1.047
 4063SOL     OW22522   9.096   5.269   2.918
 4063SOL    HW122523   9.016   5.282   2.859
 4063SOL    HW222524   9.136   5.179   2.900
 4064SOL     OW22525   0.490   7.817   2.430
 4064SOL    HW122526   0.496   7.730   2.380
 4064SOL    HW222527   0.402   7.824   2.476
 4065SOL     OW22528   8.468   3.073   0.173
 4065SOL    HW122529   8.420   2.999   0.221
 4065SOL    HW222530   8.564   3.073   0.200
 4066SOL     OW22531   2.385   6.560   2.660
 4066SOL    HW122532   2.471   6.513   2.681
 4066SOL    HW222533   2.391   6.603   2.570
 4067SOL     OW22534   0.788   6.500   0.488
 4067SOL    HW122535   0.832   6.523   0.402
 4067SOL    HW222536   0.739   6.413   0.479
 4068SOL     OW22537   1.543   8.974   2.850
 4068SOL    HW122538   1.455   9.018   2.866
 4068SOL    HW222539   1.615   9.023   2.900
 4069SOL     OW22540   4.018   8.171   2.097
 4069SOL    HW122541   4.097   8.226   2.072
 4069SOL    HW222542   3.966   8.147   2.015
 4070SOL     OW22543   1.845   5.597   0.641
 4070SOL    HW122544   1.800   5.509   0.652
 4070SOL    HW222545   1.849   5.644   0.729
 4071SOL     OW22546   4.276   9.168   2.475
 4071SOL    HW122547   4.215   9.103   2.430
 4071SOL    HW222548   4.225   9.224   2.540
 4072SOL     OW22549   4.304   9.725   0.567
 4072SOL    HW122550   4.375   9.739   0.499
 4072SOL    HW222551   4.323   9.780   0.648
 4073SOL     OW22552   0.308   5.269   2.261
 4073SOL    HW122553   0.296   5.170   2.256
 4073SOL    HW222554   0.357   5.292   2.345
 4074SOL     OW22555   2.384   2.449   2.600
 4074SOL    HW122556   2.318   2.482   2.668
 4074SOL    HW222557   2.457   2.516   2.589
 4075SOL     OW22558   2.642   1.467   1.888
 4075SOL    HW122559   2.566   1.431   1.942
 4075SOL    HW222560   2.684   1.393   1.835
 4076SOL     OW22561   5.823   8.347   2.512
 4076SOL    HW122562   5.842   8.254   2.542
 4076SOL    HW222563   5.877   8.368   2.431
 4077SOL     OW22564   1.530   6.591   0.102
 4077SOL    HW122565   1.603   6.640   0.151
 4077SOL    HW222566   1.485   6.654   0.039
 4078SOL     OW22567   2.626   6.439   2.714
 4078SOL    HW122568   2.638   6.424   2.812
 4078SOL    HW222569   2.664   6.361   2.663
 4079SOL     OW22570   9.749   3.450   2.420
 4079SOL    HW122571   9.764   3.510   2.498
 4079SOL    HW222572   9.775   3.356   2.444
 4080SOL     OW22573   2.923   9.437   0.559
 4080SOL    HW122574   2.896   9.389   0.476
 4080SOL    HW222575   2.869   9.520   0.569
 4081SOL     OW22576   4.921   8.217   2.932
 4081SOL    HW122577   4.898   8.286   3.001
 4081SOL    HW222578   4.859   8.140   2.941
 4082SOL     OW22579   7.812   1.877   0.329
 4082SOL    HW122580   7.747   1.819   0.281
 4082SOL    HW222581   7.764   1.928   0.401
 4083SOL     OW22582   0.948   1.221   0.152
 4083SOL    HW122583   0.902   1.297   0.106
 4083SOL    HW222584   1.039   1.208   0.112
 4084SOL     OW22585   9.255   8.575   1.306
 4084SOL    HW122586   9.274   8.627   1.223
 4084SOL    HW222587   9.241   8.637   1.383
 4085SOL     OW22588   4.419   8.098   2.358
 4085SOL    HW122589   4.419   8.057   2.267
 4085SOL    HW222590   4.468   8.186   2.356
 4086SOL     OW22591   0.887   2.315   0.085
 4086SOL    HW122592   0.959   2.272   0.031
 4086SOL    HW222593   0.860   2.253   0.159
 4087SOL     OW22594   1.583   4.795   1.442
 4087SOL    HW122595   1.669   4.814   1.489
 4087SOL    HW222596   1.516   4.760   1.507
 4088SOL     OW22597   0.862   3.105   0.428
 4088SOL    HW122598   0.768   3.136   0.445
 4088SOL    HW222599   0.860   3.029   0.363
 4089SOL     OW22600   1.796   3.221   0.832
 4089SOL    HW122601   1.746   3.143   0.869
 4089SOL    HW222602   1.839   3.195   0.746
 4090SOL     OW22603   0.544   3.177   1.039
 4090SOL    HW122604   0.535   3.084   1.074
 4090SOL    HW222605   0.483   3.238   1.089
 4091SOL     OW22606   1.552   5.117   1.534
 4091SOL    HW122607   1.505   5.054   1.595
 4091SOL    HW222608   1.537   5.211   1.564
 4092SOL     OW22609   3.493   2.636   2.137
 4092SOL    HW122610   3.416   2.572   2.140
 4092SOL    HW222611   3.559   2.606   2.069
 4093SOL     OW22612   8.128   7.624   0.502
 4093SOL    HW122613   8.050   7.625   0.440
 4093SOL    HW222614   8.143   7.716   0.538
 4094SOL     OW22615   8.442   0.980   0.037
 4094SOL    HW122616   8.519   1.037   0.065
 4094SOL    HW222617   8.386   1.029   4.011
 4095SOL     OW22618   2.984   2.093   1.432
 4095SOL    HW122619   2.921   2.055   1.500
 4095SOL    HW222620   3.023   2.019   1.378
 4096SOL     OW22621   2.681   6.271   1.075
 4096SOL    HW122622   2.707   6.277   0.979
 4096SOL    HW222623   2.658   6.177   1.098
 4097SOL     OW22624   2.311   2.516   0.189
 4097SOL    HW122625   2.380   2.448   0.214
 4097SOL    HW222626   2.350   2.608   0.197
 4098SOL     OW22627   8.971   5.635   3.139
 4098SOL    HW122628   8.975   5.698   3.061
 4098SOL    HW222629   8.905   5.562   3.120
 4099SOL     OW22630   7.951   1.941   2.887
 4099SOL    HW122631   7.906   2.027   2.862
 4099SOL    HW222632   8.023   1.960   2.953
 4100SOL     OW22633   3.831   7.006   2.308
 4100SOL    HW122634   3.926   6.984   2.332
 4100SOL    HW222635   3.774   6.924   2.317
 4101SOL     OW22636   0.158   1.419   2.761
 4101SOL    HW122637   0.120   1.506   2.794
 4101SOL    HW222638   0.239   1.437   2.706
 4102SOL     OW22639   3.978   0.314   2.684
 4102SOL    HW122640   3.912   0.243   2.707
 4102SOL    HW222641   4.019   0.350   2.769
 4103SOL     OW22642   2.470   8.074   0.531
 4103SOL    HW122643   2.481   7.993   0.589
 4103SOL    HW222644   2.425   8.147   0.583
 4104SOL     OW22645   4.207   9.562   2.706
 4104SOL    HW122646   4.203   9.473   2.751
 4104SOL    HW222647   4.287   9.565   2.646
 4105SOL     OW22648   3.473   5.562   1.410
 4105SOL    HW122649   3.538   5.485   1.411
 4105SOL    HW222650   3.421   5.560   1.325
 4106SOL     OW22651   1.827   0.130   0.740
 4106SOL    HW122652   1.832   0.095   0.834
 4106SOL    HW222653   1.870   0.220   0.736
 4107SOL     OW22654   3.033   1.158   1.711
 4107SOL    HW122655   3.091   1.239   1.719
 4107SOL    HW222656   2.938   1.183   1.730
 4108SOL     OW22657   9.682   4.144   0.971
 4108SOL    HW122658   9.625   4.223   0.946
 4108SOL    HW222659   9.662   4.068   0.910
 4109SOL     OW22660   9.184   2.851   0.632
 4109SOL    HW122661   9.136   2.921   0.686
 4109SOL    HW222662   9.282   2.864   0.641
 4110SOL     OW22663   3.554   9.915   1.199
 4110SOL    HW122664   3.469   9.960   1.225
 4110SOL    HW222665   3.575   9.935   1.103
 4111SOL     OW22666   9.483   0.251   0.644
 4111SOL    HW122667   9.556   0.282   0.705
 4111SOL    HW222668   9.395   0.261   0.689
 4112SOL     OW22669   8.545   2.713   0.357
 4112SOL    HW122670   8.586   2.724   0.447
 4112SOL    HW222671   8.563   2.621   0.323
 4113SOL     OW22672   1.245   1.813   1.935
 4113SOL    HW122673   1.240   1.719   1.903
 4113SOL    HW222674   1.340   1.839   1.950
 4114SOL     OW22675   0.242   7.513   2.613
 4114SOL    HW122676   0.222   7.495   2.517
 4114SOL    HW222677   0.186   7.453   2.671
 4115SOL     OW22678   1.341   1.995   3.029
 4115SOL    HW122679   1.302   1.906   3.008
 4115SOL    HW222680   1.417   1.984   3.093
 4116SOL     OW22681   7.397   3.781   0.722
 4116SOL    HW122682   7.386   3.688   0.687
 4116SOL    HW222683   7.483   3.787   0.773
 4117SOL     OW22684   2.741   2.975   2.001
 4117SOL    HW122685   2.739   2.962   2.100
 4117SOL    HW222686   2.665   3.032   1.973
 4118SOL     OW22687   0.166   2.554   0.176
 4118SOL    HW122688   0.242   2.595   0.226
 4118SOL    HW222689   0.177   2.455   0.174
 4119SOL     OW22690   9.363   5.361   1.402
 4119SOL    HW122691   9.448   5.410   1.424
 4119SOL    HW222692   9.359   5.277   1.456
 4120SOL     OW22693   7.869   7.518   1.910
 4120SOL    HW122694   7.854   7.433   1.962
 4120SOL    HW222695   7.817   7.592   1.953
 4121SOL     OW22696   0.018   1.015   2.959
 4121SOL    HW122697   0.047   1.109   2.980
 4121SOL    HW222698   0.098   0.962   2.928
 4122SOL     OW22699   1.459   4.588   1.950
 4122SOL    HW122700   1.506   4.623   2.031
 4122SOL    HW222701   1.526   4.552   1.886
 4123SOL     OW22702   1.317   9.421   1.554
 4123SOL    HW122703   1.329   9.464   1.465
 4123SOL    HW222704   1.370   9.336   1.557
 4124SOL     OW22705   0.372   9.716   2.985
 4124SOL    HW122706   0.468   9.690   2.995
 4124SOL    HW222707   0.315   9.658   3.043
 4125SOL     OW22708   2.621   8.035   0.310
 4125SOL    HW122709   2.689   7.965   0.331
 4125SOL    HW222710   2.568   8.055   0.393
 4126SOL     OW22711   2.607   1.401   0.371
 4126SOL    HW122712   2.658   1.318   0.392
 4126SOL    HW222713   2.667   1.480   0.381
 4127SOL     OW22714   4.475   0.524   0.904
 4127SOL    HW122715   4.563   0.567   0.885
 4127SOL    HW222716   4.466   0.440   0.850
 4128SOL     OW22717   1.316   1.414   0.448
 4128SOL    HW122718   1.229   1.401   0.401
 4128SOL    HW222719   1.313   1.370   0.538
 4129SOL     OW22720   2.156   9.298   1.862
 4129SOL    HW122721   2.197   9.212   1.830
 4129SOL    HW222722   2.056   9.291   1.856
 4130SOL     OW22723   9.147   0.501   0.808
 4130SOL    HW122724   9.083   0.557   0.756
 4130SOL    HW222725   9.128   0.511   0.906
 4131SOL     OW22726   3.050   7.614   2.994
 4131SOL    HW122727   2.982   7.553   3.035
 4131SOL    HW222728   3.016   7.709   2.997
 4132SOL     OW22729   2.206   9.615   2.895
 4132SOL    HW122730   2.134   9.618   2.825
 4132SOL    HW222731   2.167   9.640   2.984
 4133SOL     OW22732   9.815   6.134   1.398
 4133SOL    HW122733   9.835   6.124   1.301
 4133SOL    HW222734   9.901   6.140   1.449
 4134SOL     OW22735   2.977   1.354   0.221
 4134SOL    HW122736   2.928   1.269   0.201
 4134SOL    HW222737   2.999   1.357   0.319
 4135SOL     OW22738   3.145   7.412   2.325
 4135SOL    HW122739   3.208   7.343   2.288
 4135SOL    HW222740   3.168   7.430   2.421
 4136SOL     OW22741   1.855   2.637   0.089
 4136SOL    HW122742   1.835   2.727   0.050
 4136SOL    HW222743   1.770   2.592   0.116
 4137SOL     OW22744   9.564   5.638   2.799
 4137SOL    HW122745   9.591   5.677   2.712
 4137SOL    HW222746   9.480   5.586   2.788
 4138SOL     OW22747   1.645   8.376   0.749
 4138SOL    HW122748   1.615   8.432   0.826
 4138SOL    HW222749   1.643   8.431   0.665
 4139SOL     OW22750   1.911   0.444   0.130
 4139SOL    HW122751   2.006   0.446   0.162
 4139SOL    HW222752   1.888   0.532   0.087
 4140SOL     OW22753   1.569   4.222   1.969
 4140SOL    HW122754   1.499   4.158   1.936
 4140SOL    HW222755   1.536   4.269   2.051
 4141SOL     OW22756   8.341   2.650   1.065
 4141SOL    HW122757   8.415   2.651   1.133
 4141SOL    HW222758   8.293   2.562   1.070
 4142SOL     OW22759   3.924   0.321   0.759
 4142SOL    HW122760   4.006   0.340   0.704
 4142SOL    HW222761   3.845   0.365   0.716
 4143SOL     OW22762   9.669   4.438   2.308
 4143SOL    HW122763   9.665   4.467   2.213
 4143SOL    HW222764   9.592   4.377   2.328
 4144SOL     OW22765   0.097   0.046   3.072
 4144SOL    HW122766   0.167   0.052   3.142
 4144SOL    HW222767   0.085   0.136   3.029
 4145SOL     OW22768   9.363   9.192   1.139
 4145SOL    HW122769   9.449   9.159   1.099
 4145SOL    HW222770   9.369   9.189   1.238
 4146SOL     OW22771   9.004   5.605   1.339
 4146SOL    HW122772   8.928   5.671   1.340
 4146SOL    HW222773   9.037   5.595   1.245
 4147SOL     OW22774   7.397   1.619   0.244
 4147SOL    HW122775   7.316   1.648   0.192
 4147SOL    HW222776   7.393   1.521   0.260
 4148SOL     OW22777   9.037   3.348   2.385
 4148SOL    HW122778   9.104   3.314   2.319
 4148SOL    HW222779   8.972   3.409   2.339
 4149SOL     OW22780   3.406   4.808   2.376
 4149SOL    HW122781   3.352   4.795   2.293
 4149SOL    HW222782   3.453   4.897   2.371
 4150SOL     OW22783   0.176   3.461   2.382
 4150SOL    HW122784   0.191   3.429   2.475
 4150SOL    HW222785   0.202   3.390   2.317
 4151SOL     OW22786   3.524   2.120   2.389
 4151SOL    HW122787   3.550   2.213   2.414
 4151SOL    HW222788   3.588   2.085   2.320
 4152SOL     OW22789   1.975   4.286   1.258
 4152SOL    HW122790   1.883   4.271   1.296
 4152SOL    HW222791   1.966   4.322   1.165
 4153SOL     OW22792   9.282   3.521   2.201
 4153SOL    HW122793   9.288   3.549   2.297
 4153SOL    HW222794   9.264   3.422   2.197
 4154SOL     OW22795   5.180   7.708   2.551
 4154SOL    HW122796   5.175   7.613   2.581
 4154SOL    HW222797   5.248   7.757   2.607
 4155SOL     OW22798   0.373   3.010   2.515
 4155SOL    HW122799   0.349   2.971   2.426
 4155SOL    HW222800   0.289   3.026   2.567
 4156SOL     OW22801   0.659   9.424   0.101
 4156SOL    HW122802   0.728   9.378   0.158
 4156SOL    HW222803   0.670   9.523   0.108
 4157SOL     OW22804   0.138   4.712   1.326
 4157SOL    HW122805   0.147   4.655   1.244
 4157SOL    HW222806   0.207   4.784   1.323
 4158SOL     OW22807   9.387   0.390   1.835
 4158SOL    HW122808   9.433   0.391   1.924
 4158SOL    HW222809   9.396   0.480   1.792
 4159SOL     OW22810   3.378   2.172   0.158
 4159SOL    HW122811   3.333   2.209   0.077
 4159SOL    HW222812   3.309   2.139   0.223
 4160SOL     OW22813   3.003   9.271   1.731
 4160SOL    HW122814   2.908   9.302   1.736
 4160SOL    HW222815   3.011   9.180   1.771
 4161SOL     OW22816   2.729   1.150   0.464
 4161SOL    HW122817   2.739   1.186   0.557
 4161SOL    HW222818   2.688   1.059   0.468
 4162SOL     OW22819   6.208   9.394   2.658
 4162SOL    HW122820   6.215   9.477   2.604
 4162SOL    HW222821   6.150   9.328   2.610
 4163SOL     OW22822   2.389   7.042   2.111
 4163SOL    HW122823   2.443   7.126   2.098
 4163SOL    HW222824   2.315   7.061   2.176
 4164SOL     OW22825   3.968   1.405   2.635
 4164SOL    HW122826   3.951   1.404   2.734
 4164SOL    HW222827   3.929   1.488   2.596
 4165SOL     OW22828   3.423   3.777   2.864
 4165SOL    HW122829   3.405   3.874   2.882
 4165SOL    HW222830   3.453   3.733   2.948
 4166SOL     OW22831   9.220   9.429   2.582
 4166SOL    HW122832   9.223   9.411   2.681
 4166SOL    HW222833   9.279   9.363   2.535
 4167SOL     OW22834   3.461   7.870   0.739
 4167SOL    HW122835   3.384   7.828   0.689
 4167SOL    HW222836   3.430   7.955   0.781
 4168SOL     OW22837   6.728   9.050   1.633
 4168SOL    HW122838   6.774   9.101   1.560
 4168SOL    HW222839   6.795   8.997   1.684
 4169SOL     OW22840   0.744   5.646   1.886
 4169SOL    HW122841   0.688   5.710   1.832
 4169SOL    HW222842   0.817   5.697   1.932
 4170SOL     OW22843   8.890   4.381   0.776
 4170SOL    HW122844   8.821   4.315   0.805
 4170SOL    HW222845   8.877   4.402   0.679
 4171SOL     OW22846   8.900   4.550   2.977
 4171SOL    HW122847   8.815   4.522   3.022
 4171SOL    HW222848   8.924   4.484   2.906
 4172SOL     OW22849   1.761   3.835   0.182
 4172SOL    HW122850   1.682   3.779   0.210
 4172SOL    HW222851   1.735   3.931   0.184
 4173SOL     OW22852   8.354   5.775   1.167
 4173SOL    HW122853   8.384   5.836   1.241
 4173SOL    HW222854   8.266   5.806   1.132
 4174SOL     OW22855   3.790   8.969   2.701
 4174SOL    HW122856   3.779   9.065   2.676
 4174SOL    HW222857   3.880   8.955   2.742
 4175SOL     OW22858   0.879   2.945   1.157
 4175SOL    HW122859   0.813   2.884   1.112
 4175SOL    HW222860   0.856   3.040   1.134
 4176SOL     OW22861   8.913   2.651   0.080
 4176SOL    HW122862   8.869   2.562   0.089
 4176SOL    HW222863   8.855   2.721   0.120
 4177SOL     OW22864   7.717   2.185   2.415
 4177SOL    HW122865   7.697   2.096   2.454
 4177SOL    HW222866   7.697   2.185   2.317
 4178SOL     OW22867   7.910   2.671   0.435
 4178SOL    HW122868   7.874   2.729   0.362
 4178SOL    HW222869   7.882   2.708   0.524
 4179SOL     OW22870   0.716   1.919   1.468
 4179SOL    HW122871   0.687   1.933   1.562
 4179SOL    HW222872   0.655   1.971   1.407
 4180SOL     OW22873   8.541   9.229   0.985
 4180SOL    HW122874   8.499   9.217   0.895
 4180SOL    HW222875   8.514   9.317   1.023
 4181SOL     OW22876   1.408   8.119   3.088
 4181SOL    HW122877   1.339   8.109   3.160
 4181SOL    HW222878   1.387   8.200   3.034
 4182SOL     OW22879   9.600   0.547   0.401
 4182SOL    HW122880   9.575   0.451   0.385
 4182SOL    HW222881   9.626   0.559   0.497
 4183SOL     OW22882   3.944   2.948   2.351
 4183SOL    HW122883   3.886   2.962   2.271
 4183SOL    HW222884   4.024   3.009   2.346
 4184SOL     OW22885   1.043   0.678   1.871
 4184SOL    HW122886   1.010   0.636   1.956
 4184SOL    HW222887   1.141   0.696   1.879
 4185SOL     OW22888   2.379   6.744   1.724
 4185SOL    HW122889   2.424   6.662   1.687
 4185SOL    HW222890   2.314   6.780   1.657
 4186SOL     OW22891   8.270   4.618   0.860
 4186SOL    HW122892   8.180   4.661   0.866
 4186SOL    HW222893   8.280   4.572   0.772
 4187SOL     OW22894   9.310   4.900   0.505
 4187SOL    HW122895   9.408   4.912   0.522
 4187SOL    HW222896   9.294   4.811   0.463
 4188SOL     OW22897   2.510   8.915   1.804
 4188SOL    HW122898   2.537   8.994   1.750
 4188SOL    HW222899   2.561   8.915   1.891
 4189SOL     OW22900   0.006   6.677   2.625
 4189SOL    HW122901   0.039   6.752   2.682
 4189SOL    HW222902   9.916   6.701   2.588
 4190SOL     OW22903   8.472   2.966   2.285
 4190SOL    HW122904   8.543   3.026   2.248
 4190SOL    HW222905   8.417   3.017   2.352
 4191SOL     OW22906   2.370   0.947   2.894
 4191SOL    HW122907   2.349   1.005   2.972
 4191SOL    HW222908   2.302   0.960   2.822
 4192SOL     OW22909   0.618   2.716   2.691
 4192SOL    HW122910   0.693   2.734   2.754
 4192SOL    HW222911   0.534   2.701   2.743
 4193SOL     OW22912   8.106   6.233   0.656
 4193SOL    HW122913   8.107   6.332   0.674
 4193SOL    HW222914   8.072   6.217   0.563
 4194SOL     OW22915   2.958   7.874   2.915
 4194SOL    HW122916   3.032   7.853   2.852
 4194SOL    HW222917   2.878   7.906   2.864
 4195SOL     OW22918   9.097   4.790   1.508
 4195SOL    HW122919   9.183   4.738   1.502
 4195SOL    HW222920   9.046   4.761   1.589
 4196SOL     OW22921   1.664   2.870   1.882
 4196SOL    HW122922   1.759   2.858   1.852
 4196SOL    HW222923   1.662   2.923   1.966
 4197SOL     OW22924   1.655   8.289   2.731
 4197SOL    HW122925   1.707   8.284   2.646
 4197SOL    HW222926   1.578   8.353   2.719
 4198SOL     OW22927   1.708   1.126   2.121
 4198SOL    HW122928   1.703   1.202   2.185
 4198SOL    HW222929   1.721   1.161   2.028
 4199SOL     OW22930   4.924   3.458   0.557
 4199SOL    HW122931   4.878   3.496   0.637
 4199SOL    HW222932   5.023   3.453   0.575
 4200SOL     OW22933   3.701   8.303   1.566
 4200SOL    HW122934   3.746   8.273   1.483
 4200SOL    HW222935   3.671   8.224   1.619
 4201SOL     OW22936   8.099   5.604   2.316
 4201SOL    HW122937   8.059   5.589   2.406
 4201SOL    HW222938   8.031   5.647   2.256
 4202SOL     OW22939   0.742   9.137   2.552
 4202SOL    HW122940   0.646   9.113   2.569
 4202SOL    HW222941   0.750   9.176   2.460
 4203SOL     OW22942   6.226   8.371   2.420
 4203SOL    HW122943   6.217   8.323   2.507
 4203SOL    HW222944   6.214   8.306   2.345
 4204SOL     OW22945   4.109   7.199   0.436
 4204SOL    HW122946   4.167   7.118   0.427
 4204SOL    HW222947   4.034   7.179   0.500
 4205SOL     OW22948   8.781   3.627   0.663
 4205SOL    HW122949   8.850   3.593   0.727
 4205SOL    HW222950   8.823   3.647   0.575
 4206SOL     OW22951   0.400   2.150   0.323
 4206SOL    HW122952   0.483   2.206   0.326
 4206SOL    HW222953   0.416   2.064   0.372
 4207SOL     OW22954   8.483   5.218   2.904
 4207SOL    HW122955   8.461   5.244   2.810
 4207SOL    HW222956   8.446   5.127   2.922
 4208SOL     OW22957   0.857   9.236   1.007
 4208SOL    HW122958   0.810   9.321   0.980
 4208SOL    HW222959   0.881   9.241   1.104
 4209SOL     OW22960   4.153   3.015   0.706
 4209SOL    HW122961   4.238   3.066   0.697
 4209SOL    HW222962   4.083   3.076   0.745
 4210SOL     OW22963   9.083   8.615   2.313
 4210SOL    HW122964   9.107   8.611   2.410
 4210SOL    HW222965   8.985   8.629   2.303
 4211SOL     OW22966   3.948   7.252   0.205
 4211SOL    HW122967   3.911   7.344   0.205
 4211SOL    HW222968   4.010   7.241   0.283
 4212SOL     OW22969   8.682   4.849   2.570
 4212SOL    HW122970   8.728   4.764   2.596
 4212SOL    HW222971   8.722   4.925   2.619
 4213SOL     OW22972   2.290   3.445   1.649
 4213SOL    HW122973   2.317   3.388   1.572
 4213SOL    HW222974   2.193   3.431   1.669
 4214SOL     OW22975   3.141   1.780   2.366
 4214SOL    HW122976   3.121   1.859   2.308
 4214SOL    HW222977   3.233   1.745   2.344
 4215SOL     OW22978   1.002   4.231   0.212
 4215SOL    HW122979   0.904   4.245   0.227
 4215SOL    HW222980   1.048   4.319   0.210
 4216SOL     OW22981   3.113   3.464   0.559
 4216SOL    HW122982   3.064   3.510   0.632
 4216SOL    HW222983   3.152   3.532   0.497
 4217SOL     OW22984   8.002   1.267   1.519
 4217SOL    HW122985   8.011   1.346   1.459
 4217SOL    HW222986   7.984   1.298   1.613
 4218SOL     OW22987   2.979   1.998   0.168
 4218SOL    HW122988   3.013   1.907   0.146
 4218SOL    HW222989   2.887   1.991   0.205
 4219SOL     OW22990   2.053   4.024   1.661
 4219SOL    HW122991   1.954   4.007   1.665
 4219SOL    HW222992   2.092   3.978   1.581
 4220SOL     OW22993   1.829   3.220   2.044
 4220SOL    HW122994   1.847   3.295   2.108
 4220SOL    HW222995   1.913   3.200   1.992
 4221SOL     OW22996   4.714   3.524   1.311
 4221SOL    HW122997   4.663   3.610   1.308
 4221SOL    HW222998   4.810   3.542   1.290
 4222SOL     OW22999   9.089   3.258   0.522
 4222SOL    HW123000   9.093   3.357   0.505
 4222SOL    HW223001   9.007   3.237   0.576
 4223SOL     OW23002   4.877   0.966   2.338
 4223SOL    HW123003   4.842   0.908   2.413
 4223SOL    HW223004   4.802   1.021   2.302
 4224SOL     OW23005   8.783   8.428   2.998
 4224SOL    HW123006   8.786   8.341   3.047
 4224SOL    HW223007   8.869   8.476   3.012
 4225SOL     OW23008   9.607   1.765   0.276
 4225SOL    HW123009   9.562   1.794   0.192
 4225SOL    HW223010   9.702   1.796   0.275
 4226SOL     OW23011   3.319   8.017   2.852
 4226SOL    HW123012   3.340   8.056   2.942
 4226SOL    HW223013   3.289   8.090   2.790
 4227SOL     OW23014   7.650   8.733   3.117
 4227SOL    HW123015   7.720   8.667   3.090
 4227SOL    HW223016   7.668   8.764   3.211
 4228SOL     OW23017   8.245   0.305   2.311
 4228SOL    HW123018   8.340   0.283   2.292
 4228SOL    HW223019   8.185   0.241   2.263
 4229SOL     OW23020   1.802   0.123   1.388
 4229SOL    HW123021   1.831   0.171   1.305
 4229SOL    HW223022   1.870   0.138   1.461
 4230SOL     OW23023   2.220   2.230   1.077
 4230SOL    HW123024   2.246   2.192   1.166
 4230SOL    HW223025   2.294   2.215   1.012
 4231SOL     OW23026   0.140   8.765   0.412
 4231SOL    HW123027   0.206   8.696   0.385
 4231SOL    HW223028   0.047   8.734   0.392
 4232SOL     OW23029   1.410   4.189   1.129
 4232SOL    HW123030   1.486   4.126   1.114
 4232SOL    HW223031   1.423   4.270   1.072
 4233SOL     OW23032   3.157   6.367   2.340
 4233SOL    HW123033   3.125   6.430   2.269
 4233SOL    HW223034   3.220   6.300   2.300
 4234SOL     OW23035   2.250   0.767   1.391
 4234SOL    HW123036   2.207   0.702   1.328
 4234SOL    HW223037   2.257   0.857   1.348
 4235SOL     OW23038   5.388   3.326   1.048
 4235SOL    HW123039   5.369   3.238   1.004
 4235SOL    HW223040   5.448   3.380   0.989
 4236SOL     OW23041   3.480   8.950   1.295
 4236SOL    HW123042   3.536   8.885   1.243
 4236SOL    HW223043   3.424   8.901   1.362
 4237SOL     OW23044   1.823   8.246   0.909
 4237SOL    HW123045   1.767   8.215   0.986
 4237SOL    HW223046   1.764   8.282   0.837
 4238SOL     OW23047   3.644   8.077   1.739
 4238SOL    HW123048   3.611   7.983   1.730
 4238SOL    HW223049   3.737   8.076   1.777
 4239SOL     OW23050   4.899   9.607   3.079
 4239SOL    HW123051   4.937   9.515   3.088
 4239SOL    HW223052   4.818   9.605   3.021
 4240SOL     OW23053   4.604   9.901   1.248
 4240SOL    HW123054   4.614   9.811   1.206
 4240SOL    HW223055   4.602   9.891   1.347
 4241SOL     OW23056   3.515   9.355   0.444
 4241SOL    HW123057   3.441   9.421   0.431
 4241SOL    HW223058   3.602   9.404   0.452
 4242SOL     OW23059   9.722   3.420   0.376
 4242SOL    HW123060   9.784   3.354   0.336
 4242SOL    HW223061   9.774   3.490   0.426
 4243SOL     OW23062   3.805   7.512   1.804
 4243SOL    HW123063   3.803   7.439   1.873
 4243SOL    HW223064   3.885   7.499   1.745
 4244SOL     OW23065   4.237   0.654   2.136
 4244SOL    HW123066   4.167   0.719   2.103
 4244SOL    HW223067   4.234   0.571   2.080
 4245SOL     OW23068   4.929   8.131   1.426
 4245SOL    HW123069   4.911   8.076   1.508
 4245SOL    HW223070   4.948   8.071   1.349
 4246SOL     OW23071   2.624   3.048   0.561
 4246SOL    HW123072   2.688   3.005   0.496
 4246SOL    HW223073   2.605   3.142   0.532
 4247SOL     OW23074   7.359   9.784   1.165
 4247SOL    HW123075   7.400   9.799   1.255
 4247SOL    HW223076   7.403   9.705   1.122
 4248SOL     OW23077   9.919   1.470   2.425
 4248SOL    HW123078   9.985   1.534   2.386
 4248SOL    HW223079   9.876   1.418   2.351
 4249SOL     OW23080   5.941   8.009   2.117
 4249SOL    HW123081   5.878   8.086   2.126
 4249SOL    HW223082   6.014   8.034   2.053
 4250SOL     OW23083   5.771   8.845   2.727
 4250SOL    HW123084   5.831   8.768   2.749
 4250SOL    HW223085   5.700   8.815   2.663
 4251SOL     OW23086   8.360   4.873   0.655
 4251SOL    HW123087   8.412   4.788   0.652
 4251SOL    HW223088   8.412   4.945   0.610
 4252SOL     OW23089   4.369   9.846   2.518
 4252SOL    HW123090   4.380   9.746   2.522
 4252SOL    HW223091   4.458   9.889   2.531
 4253SOL     OW23092   2.514   1.172   2.780
 4253SOL    HW123093   2.489   1.084   2.820
 4253SOL    HW223094   2.613   1.187   2.791
 4254SOL     OW23095   9.080   3.913   3.028
 4254SOL    HW123096   9.155   3.850   3.048
 4254SOL    HW223097   9.118   4.005   3.012
 4255SOL     OW23098   1.590   9.031   2.586
 4255SOL    HW123099   1.582   9.006   2.682
 4255SOL    HW223100   1.511   9.086   2.558
 4256SOL     OW23101   8.424   1.083   1.497
 4256SOL    HW123102   8.357   1.010   1.482
 4256SOL    HW223103   8.445   1.128   1.410
 4257SOL     OW23104   0.191   8.076   2.990
 4257SOL    HW123105   0.263   8.068   2.922
 4257SOL    HW223106   0.120   8.008   2.972
 4258SOL     OW23107   0.716   8.327   2.835
 4258SOL    HW123108   0.680   8.329   2.929
 4258SOL    HW223109   0.809   8.364   2.835
 4259SOL     OW23110   9.143   2.610   2.646
 4259SOL    HW123111   9.078   2.545   2.686
 4259SOL    HW223112   9.229   2.562   2.625
 4260SOL     OW23113   2.671   8.007   3.051
 4260SOL    HW123114   2.759   8.033   3.092
 4260SOL    HW223115   2.627   7.937   3.107
 4261SOL     OW23116   0.028   9.539   0.986
 4261SOL    HW123117   0.099   9.571   0.923
 4261SOL    HW223118   9.965   9.478   0.938
 4262SOL     OW23119   4.692   9.048   2.471
 4262SOL    HW123120   4.612   9.007   2.428
 4262SOL    HW223121   4.676   9.145   2.488
 4263SOL     OW23122   2.043   7.734   0.255
 4263SOL    HW123123   2.013   7.798   0.185
 4263SOL    HW223124   2.013   7.642   0.231
 4264SOL     OW23125   1.534   3.587   2.919
 4264SOL    HW123126   1.507   3.496   2.951
 4264SOL    HW223127   1.466   3.654   2.949
 4265SOL     OW23128   2.670   3.658   1.680
 4265SOL    HW123129   2.699   3.603   1.602
 4265SOL    HW223130   2.651   3.752   1.650
 4266SOL     OW23131   3.849   8.977   0.594
 4266SOL    HW123132   3.753   8.952   0.597
 4266SOL    HW223133   3.885   8.985   0.687
 4267SOL     OW23134   4.720   2.534   0.430
 4267SOL    HW123135   4.629   2.563   0.400
 4267SOL    HW223136   4.712   2.453   0.488
 4268SOL     OW23137   8.410   3.172   2.905
 4268SOL    HW123138   8.489   3.221   2.943
 4268SOL    HW223139   8.332   3.181   2.966
 4269SOL     OW23140   9.438   6.003   2.468
 4269SOL    HW123141   9.351   6.051   2.459
 4269SOL    HW223142   9.426   5.907   2.443
 4270SOL     OW23143   4.360   0.804   1.362
 4270SOL    HW123144   4.373   0.735   1.433
 4270SOL    HW223145   4.396   0.770   1.275
 4271SOL     OW23146   6.819   9.935   2.980
 4271SOL    HW123147   6.737   9.881   2.960
 4271SOL    HW223148   6.792   0.026   3.010
 4272SOL     OW23149   2.414   1.286   0.940
 4272SOL    HW123150   2.475   1.287   1.019
 4272SOL    HW223151   2.454   1.341   0.867
 4273SOL     OW23152   9.863   3.615   2.056
 4273SOL    HW123153   9.812   3.532   2.080
 4273SOL    HW223154   9.847   3.686   2.124
 4274SOL     OW23155   9.638   6.534   0.688
 4274SOL    HW123156   9.599   6.552   0.598
 4274SOL    HW223157   9.708   6.602   0.709
 4275SOL     OW23158   2.651   9.846   0.413
 4275SOL    HW123159   2.570   9.904   0.421
 4275SOL    HW223160   2.631   9.769   0.353
 4276SOL     OW23161   5.586   8.077   2.570
 4276SOL    HW123162   5.686   8.076   2.572
 4276SOL    HW223163   5.551   8.135   2.643
 4277SOL     OW23164   1.642   9.874   1.108
 4277SOL    HW123165   1.633   9.823   1.193
 4277SOL    HW223166   1.552   9.905   1.078
 4278SOL     OW23167   6.568   0.439   3.059
 4278SOL    HW123168   6.522   0.419   3.146
 4278SOL    HW223169   6.525   0.518   3.016
 4279SOL     OW23170   2.863   3.909   1.029
 4279SOL    HW123171   2.939   3.948   0.977
 4279SOL    HW223172   2.853   3.958   1.116
 4280SOL     OW23173   3.518   7.068   1.970
 4280SOL    HW123174   3.535   7.142   2.035
 4280SOL    HW223175   3.509   7.106   1.878
 4281SOL     OW23176   8.327   2.510   2.158
 4281SOL    HW123177   8.326   2.610   2.158
 4281SOL    HW223178   8.395   2.477   2.092
 4282SOL     OW23179   0.988   7.020   1.559
 4282SOL    HW123180   0.894   6.989   1.542
 4282SOL    HW223181   1.045   6.941   1.584
 4283SOL     OW23182   8.436   3.081   1.601
 4283SOL    HW123183   8.423   3.035   1.689
 4283SOL    HW223184   8.488   3.165   1.615
 4284SOL     OW23185   1.254   1.959   0.353
 4284SOL    HW123186   1.296   1.919   0.272
 4284SOL    HW223187   1.324   1.979   0.422
 4285SOL     OW23188   2.660   0.212   0.687
 4285SOL    HW123189   2.566   0.244   0.680
 4285SOL    HW223190   2.662   0.122   0.731
 4286SOL     OW23191   7.658   1.701   0.200
 4286SOL    HW123192   7.563   1.670   0.201
 4286SOL    HW223193   7.717   1.624   0.175
 4287SOL     OW23194   0.051   3.883   0.799
 4287SOL    HW123195   0.030   3.939   0.880
 4287SOL    HW223196   0.150   3.879   0.786
 4288SOL     OW23197   8.884   1.180   0.570
 4288SOL    HW123198   8.842   1.249   0.511
 4288SOL    HW223199   8.934   1.224   0.644
 4289SOL     OW23200   7.505   1.810   2.633
 4289SOL    HW123201   7.497   1.853   2.722
 4289SOL    HW223202   7.582   1.850   2.584
 4290SOL     OW23203   0.260   7.735   0.766
 4290SOL    HW123204   0.213   7.682   0.836
 4290SOL    HW223205   0.348   7.694   0.745
 4291SOL     OW23206   2.400   8.500   0.735
 4291SOL    HW123207   2.328   8.465   0.675
 4291SOL    HW223208   2.488   8.460   0.707
 4292SOL     OW23209   2.993   8.452   0.479
 4292SOL    HW123210   2.970   8.355   0.487
 4292SOL    HW223211   3.073   8.473   0.534
 4293SOL     OW23212   2.290   4.415   0.847
 4293SOL    HW123213   2.388   4.425   0.866
 4293SOL    HW223214   2.237   4.457   0.921
 4294SOL     OW23215   3.095   5.634   1.334
 4294SOL    HW123216   3.118   5.681   1.419
 4294SOL    HW223217   3.000   5.655   1.310
 4295SOL     OW23218   8.003   9.232   2.687
 4295SOL    HW123219   7.904   9.219   2.691
 4295SOL    HW223220   8.048   9.144   2.673
 4296SOL     OW23221   0.840   7.547   2.959
 4296SOL    HW123222   0.892   7.628   2.988
 4296SOL    HW223223   0.755   7.576   2.915
 4297SOL     OW23224   8.893   8.497   2.693
 4297SOL    HW123225   8.844   8.557   2.756
 4297SOL    HW223226   8.829   8.460   2.626
 4298SOL     OW23227   3.258   4.159   2.671
 4298SOL    HW123228   3.268   4.113   2.583
 4298SOL    HW223229   3.287   4.096   2.744
 4299SOL     OW23230   3.099   4.220   1.254
 4299SOL    HW123231   3.157   4.301   1.257
 4299SOL    HW223232   3.011   4.242   1.212
 4300SOL     OW23233   6.180   7.323   3.050
 4300SOL    HW123234   6.170   7.228   3.019
 4300SOL    HW223235   6.202   7.324   3.147
 4301SOL     OW23236   2.349   8.135   2.004
 4301SOL    HW123237   2.279   8.177   1.947
 4301SOL    HW223238   2.352   8.037   1.986
 4302SOL     OW23239   3.214   1.784   1.829
 4302SOL    HW123240   3.222   1.858   1.763
 4302SOL    HW223241   3.156   1.813   1.905
 4303SOL     OW23242   0.312   8.175   0.221
 4303SOL    HW123243   0.397   8.151   0.173
 4303SOL    HW223244   0.333   8.193   0.318
 4304SOL     OW23245   0.813   6.062   1.331
 4304SOL    HW123246   0.901   6.102   1.357
 4304SOL    HW223247   0.752   6.135   1.300
 4305SOL     OW23248   8.892   2.610   2.938
 4305SOL    HW123249   8.909   2.542   2.867
 4305SOL    HW223250   8.977   2.660   2.957
 4306SOL     OW23251   4.338   0.893   0.961
 4306SOL    HW123252   4.281   0.975   0.950
 4306SOL    HW223253   4.310   0.824   0.894
 4307SOL     OW23254   9.156   3.037   1.875
 4307SOL    HW123255   9.130   3.101   1.802
 4307SOL    HW223256   9.120   2.946   1.854
 4308SOL     OW23257   1.281   6.904   2.057
 4308SOL    HW123258   1.190   6.895   2.098
 4308SOL    HW223259   1.342   6.836   2.097
 4309SOL     OW23260   1.972   1.022   2.137
 4309SOL    HW123261   1.878   1.057   2.139
 4309SOL    HW223262   1.970   0.923   2.147
 4310SOL     OW23263   1.971   6.807   0.645
 4310SOL    HW123264   1.916   6.725   0.636
 4310SOL    HW223265   2.064   6.789   0.614
 4311SOL     OW23266   4.702   0.688   0.865
 4311SOL    HW123267   4.674   0.772   0.818
 4311SOL    HW223268   4.722   0.708   0.960
 4312SOL     OW23269   8.666   7.764   2.997
 4312SOL    HW123270   8.681   7.757   2.898
 4312SOL    HW223271   8.754   7.764   3.044
 4313SOL     OW23272   4.901   9.464   2.500
 4313SOL    HW123273   4.984   9.409   2.506
 4313SOL    HW223274   4.898   9.529   2.576
 4314SOL     OW23275   2.555   9.387   1.945
 4314SOL    HW123276   2.478   9.434   1.902
 4314SOL    HW223277   2.525   9.301   1.984
 4315SOL     OW23278   2.297   5.727   2.138
 4315SOL    HW123279   2.252   5.641   2.161
 4315SOL    HW223280   2.306   5.734   2.039
 4316SOL     OW23281   3.193   4.719   1.305
 4316SOL    HW123282   3.266   4.705   1.372
 4316SOL    HW223283   3.109   4.746   1.352
 4317SOL     OW23284   2.231   9.340   2.562
 4317SOL    HW123285   2.135   9.362   2.544
 4317SOL    HW223286   2.288   9.376   2.489
 4318SOL     OW23287   7.676   8.338   2.011
 4318SOL    HW123288   7.603   8.377   1.955
 4318SOL    HW223289   7.640   8.317   2.102
 4319SOL     OW23290   8.471   6.394   2.429
 4319SOL    HW123291   8.408   6.426   2.358
 4319SOL    HW223292   8.492   6.470   2.491
 4320SOL     OW23293   9.213   6.630   2.549
 4320SOL    HW123294   9.184   6.652   2.642
 4320SOL    HW223295   9.136   6.594   2.497
 4321SOL     OW23296   4.282   9.238   0.516
 4321SOL    HW123297   4.212   9.233   0.587
 4321SOL    HW223298   4.267   9.166   0.448
 4322SOL     OW23299   1.284   8.685   2.870
 4322SOL    HW123300   1.254   8.729   2.785
 4322SOL    HW223301   1.384   8.689   2.876
 4323SOL     OW23302   1.301   7.843   2.015
 4323SOL    HW123303   1.314   7.884   2.106
 4323SOL    HW223304   1.251   7.907   1.957
 4324SOL     OW23305   7.281   8.292   2.630
 4324SOL    HW123306   7.321   8.216   2.579
 4324SOL    HW223307   7.324   8.297   2.720
 4325SOL     OW23308   3.536   7.819   1.714
 4325SOL    HW123309   3.483   7.863   1.641
 4325SOL    HW223310   3.557   7.725   1.687
 4326SOL     OW23311   9.067   1.139   1.997
 4326SOL    HW123312   9.071   1.061   1.934
 4326SOL    HW223313   9.054   1.107   2.090
 4327SOL     OW23314   0.871   7.002   0.268
 4327SOL    HW123315   0.795   6.937   0.263
 4327SOL    HW223316   0.860   7.071   0.197
 4328SOL     OW23317   3.609   7.325   2.797
 4328SOL    HW123318   3.513   7.317   2.769
 4328SOL    HW223319   3.615   7.379   2.881
 4329SOL     OW23320   1.978   1.827   0.940
 4329SOL    HW123321   1.971   1.925   0.921
 4329SOL    HW223322   2.062   1.810   0.993
 4330SOL     OW23323   3.247   5.491   2.078
 4330SOL    HW123324   3.287   5.568   2.129
 4330SOL    HW223325   3.181   5.526   2.011
 4331SOL     OW23326   0.388   9.630   2.441
 4331SOL    HW123327   0.403   9.614   2.539
 4331SOL    HW223328   0.295   9.662   2.427
 4332SOL     OW23329   0.202   1.486   0.150
 4332SOL    HW123330   0.143   1.418   0.106
 4332SOL    HW223331   0.296   1.453   0.151
 4333SOL     OW23332   4.077   5.070   2.202
 4333SOL    HW123333   4.152   5.110   2.150
 4333SOL    HW223334   4.020   5.142   2.241
 4334SOL     OW23335   3.601   1.022   2.253
 4334SOL    HW123336   3.595   1.116   2.286
 4334SOL    HW223337   3.593   0.959   2.330
 4335SOL     OW23338   9.369   8.394   0.253
 4335SOL    HW123339   9.373   8.316   0.191
 4335SOL    HW223340   9.370   8.362   0.347
 4336SOL     OW23341   2.803   5.626   2.747
 4336SOL    HW123342   2.724   5.564   2.750
 4336SOL    HW223343   2.826   5.654   2.840
 4337SOL     OW23344   9.955   7.679   2.023
 4337SOL    HW123345   0.010   7.759   1.996
 4337SOL    HW223346   9.887   7.660   1.951
 4338SOL     OW23347   0.819   6.558   1.618
 4338SOL    HW123348   0.733   6.523   1.656
 4338SOL    HW223349   0.861   6.620   1.684
 4339SOL     OW23350   0.908   1.708   2.346
 4339SOL    HW123351   0.975   1.728   2.417
 4339SOL    HW223352   0.941   1.742   2.258
 4340SOL     OW23353   9.555   1.103   2.466
 4340SOL    HW123354   9.651   1.121   2.447
 4340SOL    HW223355   9.547   1.029   2.533
 4341SOL     OW23356   9.228   9.436   1.146
 4341SOL    HW123357   9.287   9.355   1.136
 4341SOL    HW223358   9.135   9.412   1.121
 4342SOL     OW23359   1.383   0.191   0.978
 4342SOL    HW123360   1.385   0.116   1.043
 4342SOL    HW223361   1.374   0.155   0.885
 4343SOL     OW23362   9.310   8.623   3.041
 4343SOL    HW123363   9.218   8.583   3.049
 4343SOL    HW223364   9.376   8.551   3.021
 4344SOL     OW23365   9.635   8.414   0.120
 4344SOL    HW123366   9.709   8.482   0.123
 4344SOL    HW223367   9.557   8.449   0.172
 4345SOL     OW23368   4.005   7.582   2.784
 4345SOL    HW123369   4.017   7.484   2.798
 4345SOL    HW223370   4.093   7.628   2.795
 4346SOL     OW23371   3.992   0.854   0.659
 4346SOL    HW123372   4.004   0.771   0.714
 4346SOL    HW223373   3.895   0.874   0.651
 4347SOL     OW23374   0.913   2.712   1.495
 4347SOL    HW123375   0.976   2.767   1.441
 4347SOL    HW223376   0.861   2.652   1.434
 4348SOL     OW23377   7.870   3.206   1.272
 4348SOL    HW123378   7.944   3.140   1.259
 4348SOL    HW223379   7.806   3.200   1.195
 4349SOL     OW23380   9.815   1.305   2.221
 4349SOL    HW123381   9.817   1.220   2.274
 4349SOL    HW223382   9.858   1.290   2.132
 4350SOL     OW23383   9.827   4.484   0.783
 4350SOL    HW123384   9.758   4.478   0.711
 4350SOL    HW223385   9.910   4.436   0.754
 4351SOL     OW23386   0.358   1.195   2.441
 4351SOL    HW123387   0.370   1.285   2.399
 4351SOL    HW223388   0.265   1.162   2.424
 4352SOL     OW23389   1.463   7.941   2.887
 4352SOL    HW123390   1.438   7.996   2.966
 4352SOL    HW223391   1.556   7.965   2.858
 4353SOL     OW23392   3.002   0.974   1.504
 4353SOL    HW123393   3.093   0.954   1.469
 4353SOL    HW223394   3.008   1.043   1.576
 4354SOL     OW23395   1.262   1.532   1.415
 4354SOL    HW123396   1.229   1.485   1.496
 4354SOL    HW223397   1.184   1.564   1.361
 4355SOL     OW23398   8.467   6.337   1.827
 4355SOL    HW123399   8.428   6.371   1.742
 4355SOL    HW223400   8.488   6.240   1.818
 4356SOL     OW23401   3.299   5.673   2.503
 4356SOL    HW123402   3.290   5.756   2.559
 4356SOL    HW223403   3.209   5.643   2.474
 4357SOL     OW23404   2.222   9.344   2.839
 4357SOL    HW123405   2.231   9.342   2.740
 4357SOL    HW223406   2.231   9.438   2.871
 4358SOL     OW23407   8.566   7.056   1.738
 4358SOL    HW123408   8.544   7.143   1.695
 4358SOL    HW223409   8.566   6.984   1.669
 4359SOL     OW23410   9.225   9.027   1.886
 4359SOL    HW123411   9.218   9.074   1.974
 4359SOL    HW223412   9.166   9.073   1.819
 4360SOL     OW23413   0.306   2.999   2.134
 4360SOL    HW123414   0.373   2.938   2.177
 4360SOL    HW223415   0.337   3.023   2.042
 4361SOL     OW23416   0.836   1.541   3.078
 4361SOL    HW123417   0.756   1.554   3.019
 4361SOL    HW223418   0.920   1.552   3.024
 4362SOL     OW23419   4.533   2.247   2.067
 4362SOL    HW123420   4.485   2.313   2.010
 4362SOL    HW223421   4.628   2.275   2.079
 4363SOL     OW23422   7.989   0.708   3.094
 4363SOL    HW123423   8.011   0.611   3.096
 4363SOL    HW223424   8.008   0.744   3.003
 4364SOL     OW23425   9.134   9.241   0.768
 4364SOL    HW123426   9.133   9.339   0.746
 4364SOL    HW223427   9.212   9.197   0.724
 4365SOL     OW23428   3.279   4.952   1.765
 4365SOL    HW123429   3.332   4.938   1.681
 4365SOL    HW223430   3.272   4.866   1.815
 4366SOL     OW23431   3.044   1.352   1.008
 4366SOL    HW123432   3.143   1.340   1.022
 4366SOL    HW223433   2.994   1.301   1.078
 4367SOL     OW23434   0.726   2.494   0.783
 4367SOL    HW123435   0.768   2.583   0.769
 4367SOL    HW223436   0.682   2.491   0.873
 4368SOL     OW23437   3.683   5.199   2.143
 4368SOL    HW123438   3.734   5.174   2.061
 4368SOL    HW223439   3.593   5.235   2.116
 4369SOL     OW23440   0.707   9.685   0.192
 4369SOL    HW123441   0.778   9.689   0.262
 4369SOL    HW223442   0.617   9.682   0.236
 4370SOL     OW23443   0.170   7.135   2.106
 4370SOL    HW123444   0.205   7.205   2.043
 4370SOL    HW223445   0.230   7.056   2.105
 4371SOL     OW23446   9.955   6.136   2.071
 4371SOL    HW123447   0.022   6.137   1.996
 4371SOL    HW223448   9.920   6.229   2.086
 4372SOL     OW23449   9.780   0.439   2.011
 4372SOL    HW123450   9.824   0.356   1.976
 4372SOL    HW223451   9.683   0.423   2.025
 4373SOL     OW23452   9.377   3.303   0.927
 4373SOL    HW123453   9.285   3.341   0.941
 4373SOL    HW223454   9.371   3.204   0.919
 4374SOL     OW23455   0.770   6.668   2.463
 4374SOL    HW123456   0.720   6.700   2.383
 4374SOL    HW223457   0.836   6.598   2.435
 4375SOL     OW23458   8.981   6.092   1.674
 4375SOL    HW123459   9.047   6.160   1.706
 4375SOL    HW223460   8.890   6.132   1.670
 4376SOL     OW23461   0.567   5.655   1.079
 4376SOL    HW123462   0.643   5.719   1.092
 4376SOL    HW223463   0.570   5.619   0.986
 4377SOL     OW23464   8.968   9.375   1.098
 4377SOL    HW123465   8.919   9.457   1.128
 4377SOL    HW223466   8.915   9.327   1.028
 4378SOL     OW23467   0.292   4.535   2.578
 4378SOL    HW123468   0.199   4.570   2.579
 4378SOL    HW223469   0.327   4.528   2.671
 4379SOL     OW23470   8.869   2.085   1.550
 4379SOL    HW123471   8.947   2.038   1.509
 4379SOL    HW223472   8.873   2.077   1.649
 4380SOL     OW23473   0.658   5.501   2.818
 4380SOL    HW123474   0.740   5.449   2.844
 4380SOL    HW223475   0.658   5.590   2.863
 4381SOL     OW23476   6.804   9.434   1.867
 4381SOL    HW123477   6.733   9.371   1.900
 4381SOL    HW223478   6.791   9.450   1.770
 4382SOL     OW23479   1.025   9.787   0.162
 4382SOL    HW123480   0.962   9.756   0.091
 4382SOL    HW223481   0.989   9.762   0.252
 4383SOL     OW23482   4.112   3.604   2.180
 4383SOL    HW123483   4.105   3.671   2.254
 4383SOL    HW223484   4.095   3.649   2.092
 4384SOL     OW23485   3.967   6.561   2.839
 4384SOL    HW123486   3.937   6.587   2.931
 4384SOL    HW223487   3.887   6.546   2.781
 4385SOL     OW23488   2.539   1.008   1.218
 4385SOL    HW123489   2.451   0.991   1.262
 4385SOL    HW223490   2.613   0.987   1.282
 4386SOL     OW23491   2.036   0.483   2.217
 4386SOL    HW123492   1.982   0.424   2.157
 4386SOL    HW223493   2.133   0.461   2.205
 4387SOL     OW23494   4.353   7.953   2.653
 4387SOL    HW123495   4.391   7.895   2.581
 4387SOL    HW223496   4.289   8.018   2.612
 4388SOL     OW23497   4.080   6.652   2.404
 4388SOL    HW123498   4.174   6.638   2.376
 4388SOL    HW223499   4.020   6.648   2.323
 4389SOL     OW23500   9.529   9.476   1.748
 4389SOL    HW123501   9.491   9.539   1.817
 4389SOL    HW223502   9.607   9.518   1.704
 4390SOL     OW23503   2.084   3.545   0.648
 4390SOL    HW123504   2.113   3.466   0.593
 4390SOL    HW223505   1.999   3.524   0.695
 4391SOL     OW23506   2.527   5.860   2.210
 4391SOL    HW123507   2.452   5.803   2.177
 4391SOL    HW223508   2.543   5.841   2.307
 4392SOL     OW23509   4.301   8.634   0.922
 4392SOL    HW123510   4.378   8.578   0.894
 4392SOL    HW223511   4.220   8.610   0.868
 4393SOL     OW23512   6.518   8.190   2.582
 4393SOL    HW123513   6.614   8.167   2.568
 4393SOL    HW223514   6.461   8.132   2.523
 4394SOL     OW23515   1.994   7.020   2.924
 4394SOL    HW123516   1.947   7.092   2.974
 4394SOL    HW223517   1.934   6.940   2.916
 4395SOL     OW23518   8.350   8.293   0.228
 4395SOL    HW123519   8.266   8.303   0.282
 4395SOL    HW223520   8.429   8.320   0.283
 4396SOL     OW23521   9.818   4.283   2.021
 4396SOL    HW123522   9.881   4.289   2.099
 4396SOL    HW223523   9.866   4.242   1.943
 4397SOL     OW23524   1.565   3.983   0.824
 4397SOL    HW123525   1.561   4.075   0.785
 4397SOL    HW223526   1.582   3.989   0.922
 4398SOL     OW23527   2.366   4.656   2.755
 4398SOL    HW123528   2.278   4.622   2.791
 4398SOL    HW223529   2.361   4.662   2.655
 4399SOL     OW23530   9.420   6.811   0.520
 4399SOL    HW123531   9.347   6.754   0.558
 4399SOL    HW223532   9.384   6.903   0.501
 4400SOL     OW23533   3.259   3.060   1.178
 4400SOL    HW123534   3.252   3.049   1.079
 4400SOL    HW223535   3.260   3.158   1.201
 4401SOL     OW23536   1.424   7.147   1.510
 4401SOL    HW123537   1.355   7.128   1.579
 4401SOL    HW223538   1.386   7.207   1.440
 4402SOL     OW23539   2.237   5.710   1.285
 4402SOL    HW123540   2.285   5.785   1.331
 4402SOL    HW223541   2.248   5.626   1.338
 4403SOL     OW23542   8.105   0.116   2.153
 4403SOL    HW123543   8.064   0.173   2.081
 4403SOL    HW223544   8.162   0.045   2.111
 4404SOL     OW23545   2.775   2.034   1.622
 4404SOL    HW123546   2.832   2.024   1.704
 4404SOL    HW223547   2.759   2.131   1.605
 4405SOL     OW23548   1.473   8.018   1.050
 4405SOL    HW123549   1.537   8.094   1.064
 4405SOL    HW223550   1.498   7.942   1.111
 4406SOL     OW23551   0.396   6.035   2.794
 4406SOL    HW123552   0.435   6.106   2.853
 4406SOL    HW223553   0.382   5.952   2.847
 4407SOL     OW23554   8.685   6.034   0.560
 4407SOL    HW123555   8.714   5.978   0.482
 4407SOL    HW223556   8.651   6.122   0.527
 4408SOL     OW23557   8.188   2.412   1.071
 4408SOL    HW123558   8.195   2.331   1.129
 4408SOL    HW223559   8.147   2.387   0.983
 4409SOL     OW23560   0.473   9.667   0.339
 4409SOL    HW123561   0.476   9.744   0.403
 4409SOL    HW223562   0.456   9.583   0.390
 4410SOL     OW23563   8.259   9.895   0.384
 4410SOL    HW123564   8.217   9.985   0.372
 4410SOL    HW223565   8.278   9.879   0.480
 4411SOL     OW23566   9.103   1.408   2.077
 4411SOL    HW123567   9.048   1.424   2.159
 4411SOL    HW223568   9.080   1.319   2.038
 4412SOL     OW23569   8.374   8.317   0.885
 4412SOL    HW123570   8.461   8.280   0.853
 4412SOL    HW223571   8.306   8.310   0.812
 4413SOL     OW23572   4.133   1.098   0.671
 4413SOL    HW123573   4.077   1.016   0.666
 4413SOL    HW223574   4.105   1.164   0.601
 4414SOL     OW23575   0.101   7.615   0.952
 4414SOL    HW123576   0.012   7.648   0.921
 4414SOL    HW223577   0.092   7.520   0.984
 4415SOL     OW23578   2.582   2.639   2.577
 4415SOL    HW123579   2.635   2.664   2.495
 4415SOL    HW223580   2.536   2.720   2.612
 4416SOL     OW23581   8.525   9.822   0.320
 4416SOL    HW123582   8.426   9.835   0.321
 4416SOL    HW223583   8.571   9.911   0.315
 4417SOL     OW23584   4.002   7.738   1.596
 4417SOL    HW123585   4.027   7.643   1.611
 4417SOL    HW223586   3.922   7.742   1.535
 4418SOL     OW23587   8.301   5.170   1.517
 4418SOL    HW123588   8.309   5.177   1.418
 4418SOL    HW223589   8.364   5.234   1.560
 4419SOL     OW23590   8.545   8.248   2.086
 4419SOL    HW123591   8.492   8.209   2.161
 4419SOL    HW223592   8.602   8.176   2.045
 4420SOL     OW23593   2.357   1.458   0.476
 4420SOL    HW123594   2.442   1.428   0.434
 4420SOL    HW223595   2.291   1.383   0.477
 4421SOL     OW23596   2.588   4.992   0.850
 4421SOL    HW123597   2.655   4.955   0.914
 4421SOL    HW223598   2.570   4.925   0.778
 4422SOL     OW23599   4.211   8.596   3.108
 4422SOL    HW123600   4.295   8.643   3.132
 4422SOL    HW223601   4.231   8.519   3.048
 4423SOL     OW23602   0.308   6.722   2.990
 4423SOL    HW123603   0.354   6.767   2.914
 4423SOL    HW223604   0.336   6.627   2.995
 4424SOL     OW23605   9.814   7.857   0.682
 4424SOL    HW123606   9.905   7.844   0.643
 4424SOL    HW223607   9.792   7.955   0.682
 4425SOL     OW23608   7.980   1.591   1.908
 4425SOL    HW123609   7.942   1.564   1.996
 4425SOL    HW223610   7.907   1.628   1.850
 4426SOL     OW23611   1.065   6.554   2.638
 4426SOL    HW123612   1.018   6.526   2.554
 4426SOL    HW223613   1.058   6.481   2.706
 4427SOL     OW23614   1.612   1.625   2.580
 4427SOL    HW123615   1.565   1.711   2.600
 4427SOL    HW223616   1.563   1.576   2.508
 4428SOL     OW23617   7.492   6.888   2.989
 4428SOL    HW123618   7.526   6.980   2.970
 4428SOL    HW223619   7.569   6.826   3.004
 4429SOL     OW23620   3.671   6.854   1.895
 4429SOL    HW123621   3.611   6.783   1.858
 4429SOL    HW223622   3.616   6.928   1.933
 4430SOL     OW23623   0.161   9.179   0.737
 4430SOL    HW123624   0.182   9.107   0.670
 4430SOL    HW223625   0.151   9.138   0.828
 4431SOL     OW23626   2.702   0.040   1.802
 4431SOL    HW123627   2.658   0.022   1.714
 4431SOL    HW223628   2.643   0.098   1.858
 4432SOL     OW23629   2.568   5.333   0.071
 4432SOL    HW123630   2.594   5.238   0.052
 4432SOL    HW223631   2.578   5.387   4.028
 4433SOL     OW23632   2.325   8.741   2.098
 4433SOL    HW123633   2.273   8.669   2.144
 4433SOL    HW223634   2.423   8.720   2.103
 4434SOL     OW23635   0.674   1.598   2.240
 4434SOL    HW123636   0.764   1.619   2.278
 4434SOL    HW223637   0.610   1.669   2.266
 4435SOL     OW23638   4.570   0.538   2.707
 4435SOL    HW123639   4.576   0.475   2.784
 4435SOL    HW223640   4.657   0.539   2.658
 4436SOL     OW23641   8.782   7.609   1.318
 4436SOL    HW123642   8.804   7.613   1.415
 4436SOL    HW223643   8.829   7.531   1.277
 4437SOL     OW23644   9.920   5.026   2.318
 4437SOL    HW123645   9.961   5.016   2.227
 4437SOL    HW223646   9.967   4.965   2.382
 4438SOL     OW23647   1.949   3.143   1.465
 4438SOL    HW123648   2.029   3.155   1.523
 4438SOL    HW223649   1.867   3.170   1.514
 4439SOL     OW23650   0.619   7.703   1.725
 4439SOL    HW123651   0.549   7.772   1.705
 4439SOL    HW223652   0.704   7.727   1.677
 4440SOL     OW23653   1.994   9.193   2.248
 4440SOL    HW123654   2.067   9.254   2.220
 4440SOL    HW223655   2.031   9.120   2.305
 4441SOL     OW23656   0.615   3.063   1.369
 4441SOL    HW123657   0.672   3.006   1.430
 4441SOL    HW223658   0.586   3.008   1.291
 4442SOL     OW23659   0.945   0.877   1.701
 4442SOL    HW123660   0.974   0.817   1.775
 4442SOL    HW223661   0.907   0.822   1.627
 4443SOL     OW23662   9.437   1.631   1.839
 4443SOL    HW123663   9.445   1.670   1.747
 4443SOL    HW223664   9.516   1.657   1.893
 4444SOL     OW23665   8.921   0.996   1.050
 4444SOL    HW123666   8.861   0.938   0.994
 4444SOL    HW223667   8.865   1.052   1.111
 4445SOL     OW23668   7.652   8.233   2.511
 4445SOL    HW123669   7.651   8.319   2.562
 4445SOL    HW223670   7.733   8.181   2.537
 4446SOL     OW23671   1.831   4.798   1.570
 4446SOL    HW123672   1.844   4.813   1.668
 4446SOL    HW223673   1.836   4.700   1.550
 4447SOL     OW23674   1.612   0.210   2.296
 4447SOL    HW123675   1.703   0.169   2.297
 4447SOL    HW223676   1.567   0.192   2.383
 4448SOL     OW23677   7.637   3.013   0.869
 4448SOL    HW123678   7.593   2.955   0.802
 4448SOL    HW223679   7.679   2.957   0.940
 4449SOL     OW23680   4.239   0.283   0.947
 4449SOL    HW123681   4.173   0.211   0.924
 4449SOL    HW223682   4.303   0.295   0.871
 4450SOL     OW23683   9.148   0.287   1.926
 4450SOL    HW123684   9.233   0.334   1.903
 4450SOL    HW223685   9.121   0.311   2.019
 4451SOL     OW23686   3.852   2.790   0.616
 4451SOL    HW123687   3.880   2.698   0.644
 4451SOL    HW223688   3.826   2.843   0.697
 4452SOL     OW23689   9.052   0.813   3.056
 4452SOL    HW123690   8.967   0.778   3.095
 4452SOL    HW223691   9.096   0.876   3.121
 4453SOL     OW23692   0.907   6.652   2.055
 4453SOL    HW123693   0.811   6.653   2.083
 4453SOL    HW223694   0.940   6.557   2.051
 4454SOL     OW23695   7.204   8.929   3.036
 4454SOL    HW123696   7.267   8.867   3.083
 4454SOL    HW223697   7.117   8.884   3.021
 4455SOL     OW23698   1.537   8.855   2.380
 4455SOL    HW123699   1.565   8.909   2.460
 4455SOL    HW223700   1.589   8.884   2.300
 4456SOL     OW23701   0.560   7.277   3.103
 4456SOL    HW123702   0.637   7.284   3.039
 4456SOL    HW223703   0.594   7.291   3.196
 4457SOL     OW23704   3.721   3.237   0.649
 4457SOL    HW123705   3.687   3.299   0.719
 4457SOL    HW223706   3.722   3.284   0.561
 4458SOL     OW23707   3.884   8.069   0.680
 4458SOL    HW123708   3.828   7.987   0.670
 4458SOL    HW223709   3.972   8.055   0.634
 4459SOL     OW23710   0.547   5.810   0.686
 4459SOL    HW123711   0.510   5.901   0.699
 4459SOL    HW223712   0.492   5.760   0.619
 4460SOL     OW23713   3.595   7.479   3.028
 4460SOL    HW123714   3.507   7.525   3.024
 4460SOL    HW223715   3.668   7.545   3.009
 4461SOL     OW23716   2.649   7.621   0.305
 4461SOL    HW123717   2.638   7.582   0.213
 4461SOL    HW223718   2.560   7.644   0.342
 4462SOL     OW23719   2.608   0.615   2.717
 4462SOL    HW123720   2.701   0.578   2.716
 4462SOL    HW223721   2.594   0.667   2.801
 4463SOL     OW23722   2.542   4.439   0.962
 4463SOL    HW123723   2.605   4.372   0.924
 4463SOL    HW223724   2.523   4.417   1.058
 4464SOL     OW23725   0.894   1.189   2.031
 4464SOL    HW123726   0.880   1.166   1.934
 4464SOL    HW223727   0.949   1.117   2.074
 4465SOL     OW23728   0.114   1.057   2.378
 4465SOL    HW123729   0.144   1.003   2.457
 4465SOL    HW223730   0.138   1.009   2.294
 4466SOL     OW23731   3.027   2.381   2.064
 4466SOL    HW123732   2.975   2.296   2.072
 4466SOL    HW223733   3.049   2.397   1.968
 4467SOL     OW23734   3.210   7.882   1.000
 4467SOL    HW123735   3.151   7.822   0.946
 4467SOL    HW223736   3.257   7.946   0.940
 4468SOL     OW23737   2.060   1.662   0.730
 4468SOL    HW123738   2.025   1.721   0.803
 4468SOL    HW223739   2.064   1.714   0.645
 4469SOL     OW23740   0.119   6.511   2.437
 4469SOL    HW123741   0.081   6.422   2.462
 4469SOL    HW223742   0.087   6.580   2.502
 4470SOL     OW23743   1.218   5.990   1.692
 4470SOL    HW123744   1.173   5.901   1.692
 4470SOL    HW223745   1.258   6.007   1.602
 4471SOL     OW23746   1.719   0.790   0.900
 4471SOL    HW123747   1.649   0.826   0.963
 4471SOL    HW223748   1.679   0.780   0.809
 4472SOL     OW23749   3.197   7.983   0.375
 4472SOL    HW123750   3.124   8.035   0.330
 4472SOL    HW223751   3.284   8.029   0.361
 4473SOL     OW23752   3.468   8.552   0.888
 4473SOL    HW123753   3.405   8.589   0.957
 4473SOL    HW223754   3.523   8.626   0.850
 4474SOL     OW23755   0.413   0.935   1.466
 4474SOL    HW123756   0.482   1.006   1.462
 4474SOL    HW223757   0.431   0.867   1.395
 4475SOL     OW23758   7.778   0.688   2.812
 4475SOL    HW123759   7.706   0.758   2.815
 4475SOL    HW223760   7.867   0.731   2.824
 4476SOL     OW23761   1.087   8.871   2.136
 4476SOL    HW123762   1.164   8.816   2.105
 4476SOL    HW223763   1.018   8.811   2.178
 4477SOL     OW23764   5.652   9.973   2.685
 4477SOL    HW123765   5.737   9.921   2.684
 4477SOL    HW223766   5.588   9.936   2.618
 4478SOL     OW23767   0.413   4.553   0.831
 4478SOL    HW123768   0.441   4.479   0.770
 4478SOL    HW223769   0.314   4.548   0.845
 4479SOL     OW23770   0.237   0.456   0.400
 4479SOL    HW123771   0.263   0.364   0.428
 4479SOL    HW223772   0.207   0.455   0.305
 4480SOL     OW23773   2.047   2.136   2.413
 4480SOL    HW123774   2.093   2.143   2.325
 4480SOL    HW223775   2.106   2.173   2.485
 4481SOL     OW23776   8.217   6.602   1.102
 4481SOL    HW123777   8.218   6.695   1.140
 4481SOL    HW223778   8.255   6.604   1.009
 4482SOL     OW23779   1.388   7.908   0.460
 4482SOL    HW123780   1.443   7.825   0.473
 4482SOL    HW223781   1.415   7.951   0.374
 4483SOL     OW23782   8.753   3.493   2.679
 4483SOL    HW123783   8.753   3.394   2.661
 4483SOL    HW223784   8.846   3.527   2.675
 4484SOL     OW23785   8.740   3.122   0.238
 4484SOL    HW123786   8.838   3.126   0.255
 4484SOL    HW223787   8.703   3.215   0.233
 4485SOL     OW23788   9.646   6.113   1.791
 4485SOL    HW123789   9.662   6.091   1.887
 4485SOL    HW223790   9.663   6.210   1.775
 4486SOL     OW23791   2.232   3.135   1.610
 4486SOL    HW123792   2.312   3.088   1.647
 4486SOL    HW223793   2.259   3.186   1.528
 4487SOL     OW23794   4.827   3.741   0.923
 4487SOL    HW123795   4.740   3.753   0.970
 4487SOL    HW223796   4.901   3.775   0.981
 4488SOL     OW23797   4.663   8.801   1.431
 4488SOL    HW123798   4.595   8.727   1.434
 4488SOL    HW223799   4.632   8.876   1.489
 4489SOL     OW23800   8.838   2.075   1.829
 4489SOL    HW123801   8.897   2.130   1.888
 4489SOL    HW223802   8.744   2.109   1.835
 4490SOL     OW23803   0.593   8.500   2.451
 4490SOL    HW123804   0.521   8.452   2.502
 4490SOL    HW223805   0.643   8.560   2.514
 4491SOL     OW23806   0.523   6.706   1.881
 4491SOL    HW123807   0.556   6.694   1.975
 4491SOL    HW223808   0.429   6.740   1.883
 4492SOL     OW23809   7.405   1.387   2.423
 4492SOL    HW123810   7.417   1.450   2.500
 4492SOL    HW223811   7.412   1.293   2.456
 4493SOL     OW23812   0.147   8.503   1.192
 4493SOL    HW123813   0.171   8.461   1.280
 4493SOL    HW223814   0.054   8.540   1.198
 4494SOL     OW23815   7.949   5.854   2.960
 4494SOL    HW123816   7.942   5.756   2.978
 4494SOL    HW223817   8.003   5.869   2.877
 4495SOL     OW23818   1.843   8.300   1.626
 4495SOL    HW123819   1.931   8.333   1.591
 4495SOL    HW223820   1.789   8.261   1.551
 4496SOL     OW23821   4.606   2.408   2.427
 4496SOL    HW123822   4.521   2.434   2.472
 4496SOL    HW223823   4.672   2.378   2.495
 4497SOL     OW23824   7.315   9.260   1.690
 4497SOL    HW123825   7.224   9.266   1.729
 4497SOL    HW223826   7.384   9.266   1.762
 4498SOL     OW23827   9.410   4.483   0.740
 4498SOL    HW123828   9.461   4.445   0.817
 4498SOL    HW223829   9.346   4.553   0.773
 4499SOL     OW23830   1.993   5.864   2.904
 4499SOL    HW123831   2.012   5.960   2.927
 4499SOL    HW223832   2.077   5.811   2.914
 4500SOL     OW23833   3.487   1.632   0.260
 4500SOL    HW123834   3.441   1.620   0.172
 4500SOL    HW223835   3.418   1.634   0.333
 4501SOL     OW23836   4.804   0.545   2.568
 4501SOL    HW123837   4.898   0.538   2.600
 4501SOL    HW223838   4.801   0.527   2.470
 4502SOL     OW23839   4.070   0.856   2.059
 4502SOL    HW123840   4.119   0.943   2.046
 4502SOL    HW223841   3.976   0.875   2.086
 4503SOL     OW23842   2.446   3.081   2.256
 4503SOL    HW123843   2.382   3.015   2.296
 4503SOL    HW223844   2.419   3.173   2.283
 4504SOL     OW23845   1.003   3.759   0.863
 4504SOL    HW123846   0.926   3.726   0.808
 4504SOL    HW223847   1.054   3.827   0.811
 4505SOL     OW23848   7.843   9.173   1.246
 4505SOL    HW123849   7.793   9.132   1.322
 4505SOL    HW223850   7.788   9.245   1.204
 4506SOL     OW23851   8.856   6.783   2.748
 4506SOL    HW123852   8.829   6.824   2.661
 4506SOL    HW223853   8.786   6.717   2.777
 4507SOL     OW23854   7.831   5.765   2.487
 4507SOL    HW123855   7.893   5.691   2.514
 4507SOL    HW223856   7.810   5.821   2.567
 4508SOL     OW23857   9.229   9.821   1.633
 4508SOL    HW123858   9.305   9.823   1.697
 4508SOL    HW223859   9.193   9.727   1.627
 4509SOL     OW23860   8.205   9.929   2.927
 4509SOL    HW123861   8.135   9.892   2.866
 4509SOL    HW223862   8.281   9.963   2.872
 4510SOL     OW23863   0.853   5.603   2.220
 4510SOL    HW123864   0.758   5.596   2.190
 4510SOL    HW223865   0.907   5.648   2.149
 4511SOL     OW23866   2.904   6.806   2.228
 4511SOL    HW123867   2.886   6.890   2.279
 4511SOL    HW223868   2.819   6.758   2.210
 4512SOL     OW23869   0.050   1.417   0.371
 4512SOL    HW123870   9.964   1.379   0.338
 4512SOL    HW223871   0.101   1.456   0.295
 4513SOL     OW23872   9.616   5.803   1.914
 4513SOL    HW123873   9.642   5.721   1.965
 4513SOL    HW223874   9.650   5.884   1.962
 4514SOL     OW23875   5.343   8.708   2.354
 4514SOL    HW123876   5.380   8.719   2.262
 4514SOL    HW223877   5.333   8.611   2.375
 4515SOL     OW23878   9.827   0.843   3.037
 4515SOL    HW123879   9.897   0.910   3.012
 4515SOL    HW223880   9.815   0.844   3.136
 4516SOL     OW23881   8.480   8.492   1.547
 4516SOL    HW123882   8.506   8.588   1.531
 4516SOL    HW223883   8.521   8.434   1.477
 4517SOL     OW23884   0.557   0.207   1.102
 4517SOL    HW123885   0.538   0.121   1.148
 4517SOL    HW223886   0.475   0.264   1.103
 4518SOL     OW23887   0.650   3.484   1.803
 4518SOL    HW123888   0.627   3.565   1.858
 4518SOL    HW223889   0.570   3.425   1.794
 4519SOL     OW23890   1.175   7.083   0.420
 4519SOL    HW123891   1.093   7.128   0.455
 4519SOL    HW223892   1.157   6.985   0.411
 4520SOL     OW23893   2.440   0.714   0.988
 4520SOL    HW123894   2.462   0.811   1.001
 4520SOL    HW223895   2.358   0.706   0.931
 4521SOL     OW23896   4.427   3.889   0.698
 4521SOL    HW123897   4.328   3.877   0.709
 4521SOL    HW223898   4.471   3.800   0.690
 4522SOL     OW23899   2.092   1.963   1.690
 4522SOL    HW123900   2.051   1.896   1.629
 4522SOL    HW223901   2.061   1.946   1.783
 4523SOL     OW23902   3.368   2.735   1.508
 4523SOL    HW123903   3.408   2.733   1.599
 4523SOL    HW223904   3.389   2.822   1.464
 4524SOL     OW23905   1.122   3.650   1.796
 4524SOL    HW123906   1.068   3.596   1.862
 4524SOL    HW223907   1.198   3.594   1.762
 4525SOL     OW23908   8.135   4.270   0.657
 4525SOL    HW123909   8.075   4.216   0.598
 4525SOL    HW223910   8.205   4.210   0.696
 4526SOL     OW23911   9.023   5.972   0.129
 4526SOL    HW123912   8.955   5.923   0.076
 4526SOL    HW223913   9.055   5.915   0.205
 4527SOL     OW23914   8.129   5.425   1.036
 4527SOL    HW123915   8.106   5.348   0.977
 4527SOL    HW223916   8.058   5.437   1.105
 4528SOL     OW23917   8.759   0.762   0.443
 4528SOL    HW123918   8.829   0.690   0.442
 4528SOL    HW223919   8.673   0.724   0.477
 4529SOL     OW23920   9.933   0.220   0.205
 4529SOL    HW123921   9.906   0.177   0.291
 4529SOL    HW223922   9.853   0.230   0.146
 4530SOL     OW23923   1.333   5.842   0.122
 4530SOL    HW123924   1.420   5.866   0.079
 4530SOL    HW223925   1.346   5.836   0.221
 4531SOL     OW23926   3.807   6.913   3.057
 4531SOL    HW123927   3.767   6.988   3.110
 4531SOL    HW223928   3.879   6.948   2.997
 4532SOL     OW23929   0.072   6.142   1.498
 4532SOL    HW123930   0.046   6.077   1.570
 4532SOL    HW223931   0.149   6.106   1.446
 4533SOL     OW23932   3.962   0.390   2.423
 4533SOL    HW123933   3.957   0.374   2.521
 4533SOL    HW223934   4.033   0.458   2.404
 4534SOL     OW23935   0.900   1.288   1.306
 4534SOL    HW123936   0.977   1.226   1.317
 4534SOL    HW223937   0.895   1.348   1.386
 4535SOL     OW23938   3.749   2.108   1.804
 4535SOL    HW123939   3.727   2.092   1.708
 4535SOL    HW223940   3.847   2.129   1.812
 4536SOL     OW23941   3.119   6.551   1.730
 4536SOL    HW123942   3.132   6.627   1.794
 4536SOL    HW223943   3.041   6.570   1.670
 4537SOL     OW23944   9.376   0.471   1.062
 4537SOL    HW123945   9.280   0.493   1.076
 4537SOL    HW223946   9.403   0.495   0.969
 4538SOL     OW23947   1.821   6.981   0.270
 4538SOL    HW123948   1.825   7.051   0.341
 4538SOL    HW223949   1.908   6.980   0.220
 4539SOL     OW23950   9.849   2.075   1.514
 4539SOL    HW123951   9.794   2.022   1.450
 4539SOL    HW223952   9.930   2.023   1.540
 4540SOL     OW23953   4.285   9.494   0.399
 4540SOL    HW123954   4.297   9.560   0.472
 4540SOL    HW223955   4.285   9.401   0.437
 4541SOL     OW23956   9.458   1.298   2.828
 4541SOL    HW123957   9.557   1.291   2.821
 4541SOL    HW223958   9.419   1.208   2.847
 4542SOL     OW23959   2.505   0.121   0.222
 4542SOL    HW123960   2.474   0.059   0.295
 4542SOL    HW223961   2.461   0.210   0.234
 4543SOL     OW23962   0.638   2.724   0.528
 4543SOL    HW123963   0.588   2.637   0.530
 4543SOL    HW223964   0.601   2.782   0.456
 4544SOL     OW23965   2.152   2.307   0.390
 4544SOL    HW123966   2.226   2.271   0.333
 4544SOL    HW223967   2.122   2.395   0.354
 4545SOL     OW23968   4.952   1.652   2.299
 4545SOL    HW123969   4.905   1.717   2.239
 4545SOL    HW223970   4.926   1.670   2.394
 4546SOL     OW23971   4.229   3.751   1.715
 4546SOL    HW123972   4.303   3.702   1.761
 4546SOL    HW223973   4.265   3.798   1.634
 4547SOL     OW23974   3.908   7.158   0.623
 4547SOL    HW123975   3.841   7.205   0.566
 4547SOL    HW223976   3.861   7.105   0.694
 4548SOL     OW23977   8.898   9.424   2.282
 4548SOL    HW123978   8.934   9.422   2.188
 4548SOL    HW223979   8.925   9.341   2.330
 4549SOL     OW23980   7.610   3.826   0.899
 4549SOL    HW123981   7.659   3.909   0.871
 4549SOL    HW223982   7.555   3.845   0.980
 4550SOL     OW23983   8.062   8.093   2.986
 4550SOL    HW123984   7.980   8.106   3.041
 4550SOL    HW223985   8.142   8.125   3.038
 4551SOL     OW23986   1.332   0.583   1.334
 4551SOL    HW123987   1.352   0.666   1.386
 4551SOL    HW223988   1.356   0.598   1.238
 4552SOL     OW23989   2.458   6.413   1.933
 4552SOL    HW123990   2.552   6.444   1.950
 4552SOL    HW223991   2.456   6.313   1.933
 4553SOL     OW23992   8.887   6.952   2.340
 4553SOL    HW123993   8.826   6.900   2.281
 4553SOL    HW223994   8.848   6.958   2.432
 4554SOL     OW23995   9.217   1.579   1.521
 4554SOL    HW123996   9.200   1.573   1.422
 4554SOL    HW223997   9.239   1.488   1.556
 4555SOL     OW23998   3.142   5.134   1.079
 4555SOL    HW123999   3.202   5.201   1.122
 4555SOL    HW224000   3.184   5.043   1.084
 4556SOL     OW24001   8.319   5.460   2.399
 4556SOL    HW124002   8.232   5.498   2.367
 4556SOL    HW224003   8.307   5.363   2.420
 4557SOL     OW24004   8.149   3.231   0.200
 4557SOL    HW124005   8.102   3.318   0.215
 4557SOL    HW224006   8.236   3.248   0.152
 4558SOL     OW24007   1.702   9.593   1.653
 4558SOL    HW124008   1.764   9.603   1.731
 4558SOL    HW224009   1.756   9.588   1.569
 4559SOL     OW24010   3.411   1.681   3.069
 4559SOL    HW124011   3.367   1.599   3.033
 4559SOL    HW224012   3.503   1.658   3.102
 4560SOL     OW24013   9.372   6.795   1.443
 4560SOL    HW124014   9.436   6.775   1.517
 4560SOL    HW224015   9.424   6.833   1.365
 4561SOL     OW24016   6.525   8.762   2.986
 4561SOL    HW124017   6.569   8.821   3.053
 4561SOL    HW224018   6.586   8.746   2.909
 4562SOL     OW24019   4.661   8.476   3.006
 4562SOL    HW124020   4.591   8.511   2.944
 4562SOL    HW224021   4.636   8.384   3.037
 4563SOL     OW24022   3.502   1.076   1.666
 4563SOL    HW124023   3.575   1.014   1.695
 4563SOL    HW224024   3.414   1.041   1.698
 4564SOL     OW24025   8.521   8.717   0.249
 4564SOL    HW124026   8.583   8.667   0.189
 4564SOL    HW224027   8.429   8.719   0.208
 4565SOL     OW24028   8.533   7.063   3.082
 4565SOL    HW124029   8.569   7.039   2.992
 4565SOL    HW224030   8.519   7.162   3.087
 4566SOL     OW24031   6.429   8.598   2.677
 4566SOL    HW124032   6.469   8.687   2.653
 4566SOL    HW224033   6.332   8.609   2.698
 4567SOL     OW24034   1.467   7.436   0.531
 4567SOL    HW124035   1.384   7.470   0.575
 4567SOL    HW224036   1.456   7.339   0.510
 4568SOL     OW24037   0.752   0.071   1.669
 4568SOL    HW124038   0.827   0.007   1.657
 4568SOL    HW224039   0.779   0.143   1.734
 4569SOL     OW24040   0.674   9.457   1.919
 4569SOL    HW124041   0.734   9.377   1.917
 4569SOL    HW224042   0.619   9.461   1.836
 4570SOL     OW24043   0.549   4.013   0.829
 4570SOL    HW124044   0.607   3.977   0.902
 4570SOL    HW224045   0.606   4.056   0.760
 4571SOL     OW24046   9.418   7.535   2.566
 4571SOL    HW124047   9.473   7.607   2.607
 4571SOL    HW224048   9.426   7.539   2.466
 4572SOL     OW24049   0.374   2.113   2.535
 4572SOL    HW124050   0.362   2.198   2.485
 4572SOL    HW224051   0.463   2.114   2.581
 4573SOL     OW24052   5.251   8.103   0.248
 4573SOL    HW124053   5.207   8.172   0.305
 4573SOL    HW224054   5.345   8.088   0.280
 4574SOL     OW24055   7.852   0.105   1.378
 4574SOL    HW124056   7.833   0.083   1.283
 4574SOL    HW224057   7.938   0.155   1.385
 4575SOL     OW24058   4.387   7.112   1.056
 4575SOL    HW124059   4.420   7.202   1.085
 4575SOL    HW224060   4.418   7.093   0.963
 4576SOL     OW24061   3.603   7.492   2.329
 4576SOL    HW124062   3.635   7.446   2.412
 4576SOL    HW224063   3.559   7.578   2.354
 4577SOL     OW24064   1.692   9.920   2.093
 4577SOL    HW124065   1.609   9.973   2.073
 4577SOL    HW224066   1.746   9.911   2.009
 4578SOL     OW24067   4.557   7.474   0.835
 4578SOL    HW124068   4.472   7.431   0.803
 4578SOL    HW224069   4.610   7.506   0.756
 4579SOL     OW24070   4.076   8.006   1.527
 4579SOL    HW124071   4.064   7.908   1.546
 4579SOL    HW224072   4.068   8.022   1.429
 4580SOL     OW24073   2.771   3.634   1.931
 4580SOL    HW124074   2.740   3.648   1.837
 4580SOL    HW224075   2.749   3.541   1.960
 4581SOL     OW24076   2.163   0.195   1.180
 4581SOL    HW124077   2.207   0.182   1.091
 4581SOL    HW224078   2.168   0.109   1.231
 4582SOL     OW24079   8.477   0.560   1.030
 4582SOL    HW124080   8.542   0.579   0.956
 4582SOL    HW224081   8.452   0.646   1.075
 4583SOL     OW24082   7.543   1.718   2.257
 4583SOL    HW124083   7.555   1.620   2.241
 4583SOL    HW224084   7.496   1.731   2.345
 4584SOL     OW24085   2.123   6.138   1.794
 4584SOL    HW124086   2.144   6.142   1.696
 4584SOL    HW224087   2.076   6.053   1.814
 4585SOL     OW24088   9.370   4.567   0.089
 4585SOL    HW124089   9.329   4.553   4.039
 4585SOL    HW224090   9.394   4.664   0.099
 4586SOL     OW24091   0.878   7.662   0.746
 4586SOL    HW124092   0.811   7.727   0.781
 4586SOL    HW224093   0.970   7.697   0.763
 4587SOL     OW24094   9.365   2.779   1.515
 4587SOL    HW124095   9.306   2.699   1.502
 4587SOL    HW224096   9.378   2.795   1.613
 4588SOL     OW24097   9.042   7.502   0.963
 4588SOL    HW124098   9.074   7.421   0.913
 4588SOL    HW224099   8.942   7.508   0.957
 4589SOL     OW24100   0.575   8.431   1.653
 4589SOL    HW124101   0.603   8.446   1.558
 4589SOL    HW224102   0.495   8.371   1.654
 4590SOL     OW24103   3.414   9.046   1.765
 4590SOL    HW124104   3.361   8.963   1.783
 4590SOL    HW224105   3.450   9.044   1.672
 4591SOL     OW24106   3.109   6.464   2.668
 4591SOL    HW124107   3.050   6.466   2.588
 4591SOL    HW224108   3.144   6.371   2.681
 4592SOL     OW24109   2.317   2.133   0.231
 4592SOL    HW124110   2.359   2.137   0.141
 4592SOL    HW224111   2.229   2.085   0.224
 4593SOL     OW24112   9.614   2.784   0.314
 4593SOL    HW124113   9.543   2.852   0.334
 4593SOL    HW224114   9.572   2.693   0.306
 4594SOL     OW24115   2.415   5.475   2.376
 4594SOL    HW124116   2.505   5.496   2.338
 4594SOL    HW224117   2.387   5.549   2.437
 4595SOL     OW24118   2.870   5.137   0.092
 4595SOL    HW124119   2.781   5.116   0.052
 4595SOL    HW224120   2.940   5.076   0.054
 4596SOL     OW24121   4.604   7.778   0.615
 4596SOL    HW124122   4.619   7.810   0.522
 4596SOL    HW224123   4.506   7.776   0.634
 4597SOL     OW24124   4.625   9.183   2.048
 4597SOL    HW124125   4.716   9.146   2.069
 4597SOL    HW224126   4.635   9.278   2.016
 4598SOL     OW24127   0.831   2.141   0.304
 4598SOL    HW124128   0.753   2.202   0.317
 4598SOL    HW224129   0.843   2.085   0.386
 4599SOL     OW24130   1.551   6.749   2.593
 4599SOL    HW124131   1.600   6.665   2.617
 4599SOL    HW224132   1.608   6.828   2.614
 4600SOL     OW24133   4.613   7.614   2.844
 4600SOL    HW124134   4.645   7.651   2.757
 4600SOL    HW224135   4.573   7.524   2.830
 4601SOL     OW24136   3.479   0.179   0.194
 4601SOL    HW124137   3.577   0.166   0.179
 4601SOL    HW224138   3.441   0.096   0.236
 4602SOL     OW24139   3.590   2.698   2.388
 4602SOL    HW124140   3.533   2.654   2.457
 4602SOL    HW224141   3.557   2.674   2.297
 4603SOL     OW24142   8.375   8.173   2.292
 4603SOL    HW124143   8.403   8.086   2.333
 4603SOL    HW224144   8.283   8.165   2.254
 4604SOL     OW24145   9.349   2.946   1.299
 4604SOL    HW124146   9.417   2.910   1.234
 4604SOL    HW224147   9.352   2.891   1.383
 4605SOL     OW24148   2.599   6.195   0.039
 4605SOL    HW124149   2.649   6.282   0.039
 4605SOL    HW224150   2.620   6.145   3.995
 4606SOL     OW24151   1.215   5.141   1.590
 4606SOL    HW124152   1.218   5.225   1.643
 4606SOL    HW224153   1.284   5.077   1.624
 4607SOL     OW24154   1.923   6.762   1.183
 4607SOL    HW124155   1.930   6.766   1.083
 4607SOL    HW224156   1.878   6.677   1.210
 4608SOL     OW24157   9.827   6.380   2.128
 4608SOL    HW124158   9.886   6.460   2.138
 4608SOL    HW224159   9.805   6.344   2.218
 4609SOL     OW24160   1.747   3.757   1.918
 4609SOL    HW124161   1.701   3.820   1.981
 4609SOL    HW224162   1.838   3.735   1.953
 4610SOL     OW24163   1.288   3.605   2.648
 4610SOL    HW124164   1.387   3.597   2.646
 4610SOL    HW224165   1.250   3.564   2.565
 4611SOL     OW24166   7.087   8.837   2.487
 4611SOL    HW124167   7.078   8.908   2.556
 4611SOL    HW224168   7.062   8.748   2.527
 4612SOL     OW24169   7.513   8.282   2.805
 4612SOL    HW124170   7.552   8.356   2.750
 4612SOL    HW224171   7.575   8.203   2.802
 4613SOL     OW24172   8.279   3.163   1.000
 4613SOL    HW124173   8.262   3.243   1.057
 4613SOL    HW224174   8.258   3.080   1.052
 4614SOL     OW24175   2.214   9.090   0.582
 4614SOL    HW124176   2.169   9.172   0.619
 4614SOL    HW224177   2.201   9.086   0.483
 4615SOL     OW24178   4.643   9.526   1.683
 4615SOL    HW124179   4.628   9.501   1.779
 4615SOL    HW224180   4.571   9.589   1.653
 4616SOL     OW24181   7.992   5.553   2.566
 4616SOL    HW124182   7.910   5.521   2.614
 4616SOL    HW224183   8.073   5.515   2.609
 4617SOL     OW24184   9.562   5.708   0.277
 4617SOL    HW124185   9.499   5.780   0.248
 4617SOL    HW224186   9.516   5.646   0.339
 4618SOL     OW24187   3.172   2.584   2.425
 4618SOL    HW124188   3.073   2.594   2.436
 4618SOL    HW224189   3.204   2.508   2.483
 4619SOL     OW24190   3.374   4.044   2.912
 4619SOL    HW124191   3.460   4.085   2.880
 4619SOL    HW224192   3.329   4.108   2.975
 4620SOL     OW24193   2.851   7.441   3.075
 4620SOL    HW124194   2.765   7.484   3.102
 4620SOL    HW224195   2.835   7.344   3.057
 4621SOL     OW24196   4.959   2.018   1.734
 4621SOL    HW124197   4.967   2.089   1.664
 4621SOL    HW224198   5.049   2.002   1.775
 4622SOL     OW24199   4.387   1.409   2.195
 4622SOL    HW124200   4.377   1.384   2.098
 4622SOL    HW224201   4.482   1.393   2.223
 4623SOL     OW24202   9.181   2.624   0.049
 4623SOL    HW124203   9.201   2.629   3.992
 4623SOL    HW224204   9.084   2.641   0.064
 4624SOL     OW24205   0.449   4.139   2.219
 4624SOL    HW124206   0.407   4.198   2.288
 4624SOL    HW224207   0.513   4.193   2.164
 4625SOL     OW24208   4.516   2.690   0.303
 4625SOL    HW124209   4.488   2.753   0.376
 4625SOL    HW224210   4.582   2.735   0.244
 4626SOL     OW24211   1.956   4.409   0.223
 4626SOL    HW124212   1.896   4.358   0.286
 4626SOL    HW224213   2.035   4.353   0.200
 4627SOL     OW24214   0.291   0.058   0.873
 4627SOL    HW124215   0.344   0.138   0.845
 4627SOL    HW224216   0.275   0.061   0.971
 4628SOL     OW24217   4.351   0.034   2.013
 4628SOL    HW124218   4.326   0.088   2.094
 4628SOL    HW224219   4.351   9.937   2.037
 4629SOL     OW24220   0.901   4.692   1.059
 4629SOL    HW124221   0.939   4.614   1.109
 4629SOL    HW224222   0.953   4.775   1.082
 4630SOL     OW24223   1.273   1.029   1.942
 4630SOL    HW124224   1.269   1.081   1.857
 4630SOL    HW224225   1.328   1.079   2.009
 4631SOL     OW24226   2.710   5.458   3.081
 4631SOL    HW124227   2.619   5.416   3.085
 4631SOL    HW224228   2.780   5.386   3.082
 4632SOL     OW24229   9.601   1.143   0.885
 4632SOL    HW124230   9.657   1.214   0.926
 4632SOL    HW224231   9.583   1.166   0.789
 4633SOL     OW24232   0.473   4.960   0.303
 4633SOL    HW124233   0.434   4.914   0.223
 4633SOL    HW224234   0.565   4.992   0.281
 4634SOL     OW24235   2.097   7.767   1.940
 4634SOL    HW124236   2.071   7.679   1.901
 4634SOL    HW224237   2.086   7.764   2.039
 4635SOL     OW24238   3.184   7.394   0.027
 4635SOL    HW124239   3.226   7.425   3.983
 4635SOL    HW224240   3.159   7.298   0.019
 4636SOL     OW24241   2.347   8.657   2.473
 4636SOL    HW124242   2.355   8.567   2.515
 4636SOL    HW224243   2.438   8.689   2.445
 4637SOL     OW24244   9.598   3.345   2.815
 4637SOL    HW124245   9.696   3.357   2.800
 4637SOL    HW224246   9.583   3.294   2.899
 4638SOL     OW24247   2.731   9.672   0.919
 4638SOL    HW124248   2.788   9.747   0.884
 4638SOL    HW224249   2.788   9.609   0.972
 4639SOL     OW24250   3.513   1.058   2.808
 4639SOL    HW124251   3.565   1.081   2.725
 4639SOL    HW224252   3.546   0.971   2.844
 4640SOL     OW24253   1.759   5.035   0.461
 4640SOL    HW124254   1.690   5.106   0.444
 4640SOL    HW224255   1.849   5.076   0.468
 4641SOL     OW24256   9.678   3.716   0.453
 4641SOL    HW124257   9.609   3.715   0.381
 4641SOL    HW224258   9.759   3.764   0.420
 4642SOL     OW24259   8.419   1.404   0.850
 4642SOL    HW124260   8.514   1.371   0.855
 4642SOL    HW224261   8.368   1.347   0.785
 4643SOL     OW24262   0.101   3.679   1.394
 4643SOL    HW124263   0.083   3.581   1.379
 4643SOL    HW224264   0.120   3.723   1.307
 4644SOL     OW24265   0.837   1.959   2.171
 4644SOL    HW124266   0.845   1.985   2.267
 4644SOL    HW224267   0.927   1.927   2.139
 4645SOL     OW24268   4.438   7.993   2.116
 4645SOL    HW124269   4.523   8.031   2.080
 4645SOL    HW224270   4.370   7.987   2.043
 4646SOL     OW24271   1.179   0.921   0.409
 4646SOL    HW124272   1.116   0.928   0.331
 4646SOL    HW224273   1.168   1.002   0.467
 4647SOL     OW24274   0.634   4.142   2.960
 4647SOL    HW124275   0.724   4.106   2.987
 4647SOL    HW224276   0.575   4.066   2.933
 4648SOL     OW24277   5.724   0.403   2.886
 4648SOL    HW124278   5.627   0.421   2.903
 4648SOL    HW224279   5.771   0.489   2.866
 4649SOL     OW24280   7.220   3.908   0.884
 4649SOL    HW124281   7.174   3.983   0.837
 4649SOL    HW224282   7.284   3.863   0.821
 4650SOL     OW24283   2.534   3.328   0.588
 4650SOL    HW124284   2.465   3.296   0.653
 4650SOL    HW224285   2.619   3.350   0.637
 4651SOL     OW24286   1.669   2.168   0.560
 4651SOL    HW124287   1.681   2.263   0.586
 4651SOL    HW224288   1.717   2.109   0.624
 4652SOL     OW24289   1.881   9.227   1.851
 4652SOL    HW124290   1.783   9.234   1.870
 4652SOL    HW224291   1.894   9.189   1.759
 4653SOL     OW24292   0.894   0.685   0.152
 4653SOL    HW124293   0.800   0.675   0.182
 4653SOL    HW224294   0.913   0.621   0.078
 4654SOL     OW24295   8.827   4.366   0.246
 4654SOL    HW124296   8.759   4.334   0.311
 4654SOL    HW224297   8.810   4.462   0.224
 4655SOL     OW24298   3.936   1.651   0.020
 4655SOL    HW124299   4.006   1.596   0.065
 4655SOL    HW224300   3.931   1.741   0.063
 4656SOL     OW24301   8.720   3.569   2.939
 4656SOL    HW124302   8.642   3.631   2.947
 4656SOL    HW224303   8.730   3.542   2.843
 4657SOL     OW24304   8.635   6.630   2.824
 4657SOL    HW124305   8.656   6.557   2.888
 4657SOL    HW224306   8.566   6.691   2.863
 4658SOL     OW24307   7.490   9.852   1.397
 4658SOL    HW124308   7.480   9.812   1.488
 4658SOL    HW224309   7.510   9.950   1.405
 4659SOL     OW24310   9.282   4.640   1.766
 4659SOL    HW124311   9.312   4.636   1.671
 4659SOL    HW224312   9.286   4.735   1.798
 4660SOL     OW24313   9.331   5.078   0.219
 4660SOL    HW124314   9.351   5.111   0.312
 4660SOL    HW224315   9.343   5.153   0.154
 4661SOL     OW24316   1.163   9.042   0.537
 4661SOL    HW124317   1.109   9.002   0.463
 4661SOL    HW224318   1.259   9.047   0.509
 4662SOL     OW24319   2.537   4.383   0.579
 4662SOL    HW124320   2.603   4.373   0.505
 4662SOL    HW224321   2.481   4.464   0.563
 4663SOL     OW24322   7.598   9.046   1.719
 4663SOL    HW124323   7.559   8.959   1.746
 4663SOL    HW224324   7.559   9.120   1.774
 4664SOL     OW24325   2.329   2.673   0.605
 4664SOL    HW124326   2.290   2.627   0.685
 4664SOL    HW224327   2.259   2.731   0.564
 4665SOL     OW24328   1.512   7.794   1.848
 4665SOL    HW124329   1.439   7.804   1.914
 4665SOL    HW224330   1.474   7.766   1.760
 4666SOL     OW24331   0.878   9.381   2.929
 4666SOL    HW124332   0.794   9.371   2.983
 4666SOL    HW224333   0.957   9.380   2.989
 4667SOL     OW24334   3.586   2.581   0.533
 4667SOL    HW124335   3.670   2.532   0.509
 4667SOL    HW224336   3.589   2.672   0.492
 4668SOL     OW24337   7.951   1.621   2.369
 4668SOL    HW124338   7.885   1.623   2.444
 4668SOL    HW224339   8.042   1.602   2.406
 4669SOL     OW24340   3.705   7.358   2.538
 4669SOL    HW124341   3.668   7.363   2.630
 4669SOL    HW224342   3.780   7.293   2.535
 4670SOL     OW24343   5.642   8.436   2.824
 4670SOL    HW124344   5.581   8.359   2.805
 4670SOL    HW224345   5.620   8.474   2.914
 4671SOL     OW24346   2.445   6.061   0.406
 4671SOL    HW124347   2.375   6.067   0.335
 4671SOL    HW224348   2.468   6.153   0.438
 4672SOL     OW24349   2.285   2.648   2.170
 4672SOL    HW124350   2.339   2.640   2.086
 4672SOL    HW224351   2.312   2.575   2.233
 4673SOL     OW24352   0.545   9.470   1.249
 4673SOL    HW124353   0.464   9.504   1.201
 4673SOL    HW224354   0.614   9.442   1.183
 4674SOL     OW24355   8.951   3.435   1.366
 4674SOL    HW124356   9.031   3.467   1.316
 4674SOL    HW224357   8.873   3.429   1.305
 4675SOL     OW24358   4.869   8.940   0.953
 4675SOL    HW124359   4.928   8.994   0.893
 4675SOL    HW224360   4.859   8.986   1.041
 4676SOL     OW24361   8.867   7.575   1.579
 4676SOL    HW124362   8.913   7.659   1.607
 4676SOL    HW224363   8.923   7.496   1.604
 4677SOL     OW24364   0.297   8.743   2.112
 4677SOL    HW124365   0.256   8.803   2.181
 4677SOL    HW224366   0.349   8.671   2.158
 4678SOL     OW24367   3.209   4.461   2.352
 4678SOL    HW124368   3.282   4.397   2.376
 4678SOL    HW224369   3.216   4.485   2.255
 4679SOL     OW24370   4.035   2.938   0.480
 4679SOL    HW124371   3.961   2.879   0.512
 4679SOL    HW224372   4.086   2.973   0.559
 4680SOL     OW24373   2.770   7.259   1.535
 4680SOL    HW124374   2.754   7.161   1.531
 4680SOL    HW224375   2.685   7.308   1.516
 4681SOL     OW24376   0.230   4.835   1.036
 4681SOL    HW124377   0.228   4.891   0.953
 4681SOL    HW224378   0.232   4.739   1.011
 4682SOL     OW24379   3.577   5.797   2.097
 4682SOL    HW124380   3.557   5.874   2.037
 4682SOL    HW224381   3.600   5.831   2.188
 4683SOL     OW24382   4.997   9.613   1.642
 4683SOL    HW124383   5.072   9.621   1.576
 4683SOL    HW224384   4.934   9.541   1.612
 4684SOL     OW24385   8.875   3.998   0.871
 4684SOL    HW124386   8.899   3.985   0.967
 4684SOL    HW224387   8.959   4.010   0.818
 4685SOL     OW24388   3.013   6.793   0.806
 4685SOL    HW124389   3.112   6.781   0.797
 4685SOL    HW224390   2.994   6.873   0.862
 4686SOL     OW24391   0.715   7.048   2.468
 4686SOL    HW124392   0.777   6.991   2.522
 4686SOL    HW224393   0.748   7.052   2.373
 4687SOL     OW24394   3.233   4.662   2.536
 4687SOL    HW124395   3.224   4.580   2.480
 4687SOL    HW224396   3.299   4.725   2.494
 4688SOL     OW24397   8.217   5.637   0.880
 4688SOL    HW124398   8.186   5.556   0.930
 4688SOL    HW224399   8.195   5.719   0.933
 4689SOL     OW24400   1.431   6.894   1.374
 4689SOL    HW124401   1.431   6.987   1.412
 4689SOL    HW224402   1.337   6.860   1.370
 4690SOL     OW24403   1.805   1.773   1.388
 4690SOL    HW124404   1.712   1.809   1.396
 4690SOL    HW224405   1.806   1.699   1.321
 4691SOL     OW24406   4.149   7.625   0.573
 4691SOL    HW124407   4.061   7.622   0.525
 4691SOL    HW224408   4.206   7.549   0.543
 4692SOL     OW24409   9.936   4.039   1.000
 4692SOL    HW124410   9.864   4.107   0.992
 4692SOL    HW224411   9.899   3.955   1.039
 4693SOL     OW24412   8.767   5.493   1.005
 4693SOL    HW124413   8.727   5.440   1.080
 4693SOL    HW224414   8.771   5.589   1.031
 4694SOL     OW24415   4.009   5.230   1.510
 4694SOL    HW124416   4.002   5.306   1.575
 4694SOL    HW224417   4.105   5.205   1.498
 4695SOL     OW24418   9.045   1.059   2.256
 4695SOL    HW124419   9.089   0.976   2.291
 4695SOL    HW224420   9.079   1.139   2.306
 4696SOL     OW24421   3.092   9.352   2.523
 4696SOL    HW124422   3.121   9.441   2.559
 4696SOL    HW224423   3.162   9.283   2.545
 4697SOL     OW24424   4.579   7.402   2.595
 4697SOL    HW124425   4.554   7.356   2.681
 4697SOL    HW224426   4.515   7.476   2.576
 4698SOL     OW24427   1.505   6.439   1.977
 4698SOL    HW124428   1.497   6.488   1.890
 4698SOL    HW224429   1.416   6.434   2.021
 4699SOL     OW24430   3.835   2.470   0.481
 4699SOL    HW124431   3.845   2.373   0.461
 4699SOL    HW224432   3.885   2.492   0.565
 4700SOL     OW24433   9.629   1.419   1.452
 4700SOL    HW124434   9.580   1.334   1.470
 4700SOL    HW224435   9.570   1.483   1.403
 4701SOL     OW24436   7.628   0.577   0.761
 4701SOL    HW124437   7.610   0.638   0.684
 4701SOL    HW224438   7.686   0.502   0.731
 4702SOL     OW24439   2.660   5.840   0.600
 4702SOL    HW124440   2.644   5.749   0.562
 4702SOL    HW224441   2.746   5.877   0.563
 4703SOL     OW24442   9.535   6.972   2.433
 4703SOL    HW124443   9.497   7.063   2.421
 4703SOL    HW224444   9.467   6.904   2.408
 4704SOL     OW24445   2.043   3.917   1.039
 4704SOL    HW124446   1.954   3.875   1.057
 4704SOL    HW224447   2.052   3.932   0.940
 4705SOL     OW24448   2.043   3.961   0.762
 4705SOL    HW124449   2.081   3.906   0.687
 4705SOL    HW224450   1.952   3.927   0.785
 4706SOL     OW24451   8.120   7.838   2.195
 4706SOL    HW124452   8.122   7.938   2.194
 4706SOL    HW224453   8.141   7.804   2.103
 4707SOL     OW24454   9.766   7.955   1.374
 4707SOL    HW124455   9.792   8.042   1.415
 4707SOL    HW224456   9.686   7.968   1.315
 4708SOL     OW24457   9.029   9.293   1.353
 4708SOL    HW124458   8.962   9.350   1.400
 4708SOL    HW224459   9.017   9.301   1.254
 4709SOL     OW24460   0.996   9.963   1.311
 4709SOL    HW124461   1.049   0.017   1.377
 4709SOL    HW224462   1.006   0.002   1.220
 4710SOL     OW24463   3.469   4.866   0.877
 4710SOL    HW124464   3.375   4.836   0.893
 4710SOL    HW224465   3.507   4.904   0.961
 4711SOL     OW24466   1.152   1.415   1.640
 4711SOL    HW124467   1.059   1.422   1.604
 4711SOL    HW224468   1.159   1.468   1.725
 4712SOL     OW24469   8.977   6.642   0.112
 4712SOL    HW124470   8.982   6.732   0.156
 4712SOL    HW224471   9.002   6.571   0.178
 4713SOL     OW24472   2.052   6.447   2.518
 4713SOL    HW124473   2.031   6.496   2.602
 4713SOL    HW224474   1.989   6.370   2.507
 4714SOL     OW24475   3.194   5.100   0.593
 4714SOL    HW124476   3.120   5.048   0.635
 4714SOL    HW224477   3.180   5.198   0.611
 4715SOL     OW24478   3.455   8.943   0.928
 4715SOL    HW124479   3.357   8.921   0.931
 4715SOL    HW224480   3.472   9.023   0.987
 4716SOL     OW24481   0.111   8.498   2.985
 4716SOL    HW124482   0.169   8.527   2.909
 4716SOL    HW224483   0.022   8.469   2.950
 4717SOL     OW24484   1.052   9.652   1.071
 4717SOL    HW124485   0.958   9.663   1.103
 4717SOL    HW224486   1.115   9.700   1.132
 4718SOL     OW24487   2.193   1.297   2.496
 4718SOL    HW124488   2.191   1.218   2.435
 4718SOL    HW224489   2.102   1.338   2.502
 4719SOL     OW24490   1.732   6.723   0.221
 4719SOL    HW124491   1.813   6.664   0.223
 4719SOL    HW224492   1.759   6.816   0.246
 4720SOL     OW24493   3.904   2.881   2.616
 4720SOL    HW124494   3.910   2.904   2.519
 4720SOL    HW224495   3.937   2.958   2.670
 4721SOL     OW24496   8.922   0.186   2.403
 4721SOL    HW124497   9.015   0.167   2.372
 4721SOL    HW224498   8.857   0.163   2.331
 4722SOL     OW24499   3.720   2.812   1.134
 4722SOL    HW124500   3.660   2.799   1.056
 4722SOL    HW224501   3.698   2.898   1.180
 4723SOL     OW24502   9.731   2.760   0.587
 4723SOL    HW124503   9.688   2.785   0.500
 4723SOL    HW224504   9.807   2.698   0.569
 4724SOL     OW24505   0.191   8.544   2.583
 4724SOL    HW124506   0.273   8.489   2.568
 4724SOL    HW224507   0.121   8.488   2.626
 4725SOL     OW24508   2.292   2.516   1.100
 4725SOL    HW124509   2.247   2.426   1.105
 4725SOL    HW224510   2.244   2.580   1.160
 4726SOL     OW24511   2.472   3.312   2.564
 4726SOL    HW124512   2.434   3.325   2.472
 4726SOL    HW224513   2.554   3.368   2.574
 4727SOL     OW24514   3.077   1.737   0.144
 4727SOL    HW124515   3.159   1.696   0.104
 4727SOL    HW224516   3.052   1.688   0.228
 4728SOL     OW24517   3.681   4.247   2.166
 4728SOL    HW124518   3.680   4.213   2.260
 4728SOL    HW224519   3.655   4.343   2.166
 4729SOL     OW24520   0.566   9.872   1.588
 4729SOL    HW124521   0.618   9.793   1.558
 4729SOL    HW224522   0.628   9.948   1.608
 4730SOL     OW24523   9.475   0.082   2.118
 4730SOL    HW124524   9.495   0.110   2.024
 4730SOL    HW224525   9.492   0.159   2.179
 4731SOL     OW24526   1.799   7.707   2.180
 4731SOL    HW124527   1.791   7.688   2.082
 4731SOL    HW224528   1.755   7.794   2.201
 4732SOL     OW24529   1.349   6.521   1.408
 4732SOL    HW124530   1.439   6.565   1.413
 4732SOL    HW224531   1.322   6.491   1.499
 4733SOL     OW24532   8.906   5.384   1.463
 4733SOL    HW124533   8.810   5.401   1.486
 4733SOL    HW224534   8.945   5.467   1.422
 4734SOL     OW24535   2.614   9.318   2.342
 4734SOL    HW124536   2.665   9.328   2.256
 4734SOL    HW224537   2.678   9.320   2.419
 4735SOL     OW24538   1.364   0.827   1.456
 4735SOL    HW124539   1.413   0.883   1.389
 4735SOL    HW224540   1.290   0.881   1.496
 4736SOL     OW24541   3.027   5.926   1.993
 4736SOL    HW124542   2.935   5.936   2.031
 4736SOL    HW224543   3.022   5.881   1.904
 4737SOL     OW24544   2.632   0.693   2.184
 4737SOL    HW124545   2.712   0.746   2.155
 4737SOL    HW224546   2.625   0.696   2.284
 4738SOL     OW24547   7.715   1.121   2.139
 4738SOL    HW124548   7.670   1.197   2.186
 4738SOL    HW224549   7.772   1.071   2.203
 4739SOL     OW24550   8.551   5.865   0.991
 4739SOL    HW124551   8.474   5.821   1.038
 4739SOL    HW224552   8.526   5.881   0.895
 4740SOL     OW24553   3.647   2.839   0.447
 4740SOL    HW124554   3.677   2.858   0.354
 4740SOL    HW224555   3.727   2.815   0.504
 4741SOL     OW24556   0.228   0.849   1.173
 4741SOL    HW124557   0.165   0.772   1.167
 4741SOL    HW224558   0.318   0.815   1.202
 4742SOL     OW24559   4.654   1.168   1.812
 4742SOL    HW124560   4.695   1.108   1.881
 4742SOL    HW224561   4.650   1.262   1.847
 4743SOL     OW24562   0.946   2.029   2.414
 4743SOL    HW124563   0.998   1.952   2.452
 4743SOL    HW224564   0.908   2.084   2.488
 4744SOL     OW24565   5.844   0.176   2.769
 4744SOL    HW124566   5.771   0.116   2.739
 4744SOL    HW224567   5.806   0.262   2.802
 4745SOL     OW24568   5.186   8.758   1.791
 4745SOL    HW124569   5.119   8.698   1.834
 4745SOL    HW224570   5.144   8.804   1.713
 4746SOL     OW24571   0.592   7.623   1.981
 4746SOL    HW124572   0.612   7.648   1.886
 4746SOL    HW224573   0.523   7.685   2.019
 4747SOL     OW24574   1.194   8.883   0.285
 4747SOL    HW124575   1.221   8.960   0.226
 4747SOL    HW224576   1.275   8.844   0.328
 4748SOL     OW24577   0.162   2.578   2.045
 4748SOL    HW124578   0.137   2.674   2.058
 4748SOL    HW224579   0.080   2.521   2.054
 4749SOL     OW24580   9.366   1.337   2.127
 4749SOL    HW124581   9.373   1.251   2.178
 4749SOL    HW224582   9.271   1.367   2.125
 4750SOL     OW24583   3.351   7.966   2.503
 4750SOL    HW124584   3.321   7.993   2.412
 4750SOL    HW224585   3.316   8.032   2.570
 4751SOL     OW24586   1.370   9.903   1.053
 4751SOL    HW124587   1.309   9.873   1.127
 4751SOL    HW224588   1.380   9.829   0.986
 4752SOL     OW24589   3.005   4.295   0.287
 4752SOL    HW124590   2.945   4.353   0.231
 4752SOL    HW224591   3.099   4.329   0.280
 4753SOL     OW24592   2.636   4.143   2.073
 4753SOL    HW124593   2.696   4.180   2.002
 4753SOL    HW224594   2.649   4.044   2.080
 4754SOL     OW24595   0.670   1.421   0.796
 4754SOL    HW124596   0.704   1.340   0.747
 4754SOL    HW224597   0.574   1.408   0.819
 4755SOL     OW24598   9.341   0.621   2.105
 4755SOL    HW124599   9.241   0.618   2.116
 4755SOL    HW224600   9.377   0.702   2.152
 4756SOL     OW24601   0.360   6.187   2.236
 4756SOL    HW124602   0.310   6.126   2.298
 4756SOL    HW224603   0.423   6.134   2.180
 4757SOL     OW24604   4.307   7.370   0.770
 4757SOL    HW124605   4.256   7.285   0.771
 4757SOL    HW224606   4.284   7.424   0.851
 4758SOL     OW24607   4.685   4.442   1.388
 4758SOL    HW124608   4.750   4.473   1.318
 4758SOL    HW224609   4.626   4.371   1.349
 4759SOL     OW24610   3.654   8.307   2.306
 4759SOL    HW124611   3.672   8.391   2.254
 4759SOL    HW224612   3.740   8.259   2.322
 4760SOL     OW24613   0.414   3.184   0.065
 4760SOL    HW124614   0.391   3.278   0.039
 4760SOL    HW224615   0.331   3.129   0.068
 4761SOL     OW24616   3.027   8.347   2.742
 4761SOL    HW124617   3.061   8.353   2.836
 4761SOL    HW224618   2.933   8.314   2.742
 4762SOL     OW24619   2.368   3.918   0.528
 4762SOL    HW124620   2.372   4.009   0.570
 4762SOL    HW224621   2.278   3.877   0.545
 4763SOL     OW24622   0.321   2.179   1.031
 4763SOL    HW124623   0.276   2.173   1.120
 4763SOL    HW224624   0.407   2.127   1.033
 4764SOL     OW24625   0.026   1.525   0.619
 4764SOL    HW124626   0.049   1.481   0.532
 4764SOL    HW224627   9.955   1.593   0.605
 4765SOL     OW24628   9.845   0.433   2.890
 4765SOL    HW124629   9.767   0.490   2.915
 4765SOL    HW224630   9.816   0.367   2.820
 4766SOL     OW24631   2.520   7.121   2.947
 4766SOL    HW124632   2.449   7.139   2.878
 4766SOL    HW224633   2.516   7.025   2.974
 4767SOL     OW24634   0.643   8.824   0.721
 4767SOL    HW124635   0.706   8.884   0.770
 4767SOL    HW224636   0.561   8.810   0.777
 4768SOL     OW24637   0.017   7.032   0.071
 4768SOL    HW124638   0.089   7.064   0.009
 4768SOL    HW224639   0.054   7.025   0.164
 4769SOL     OW24640   0.474   0.749   1.248
 4769SOL    HW124641   0.469   0.705   1.158
 4769SOL    HW224642   0.544   0.704   1.303
 4770SOL     OW24643   0.033   9.855   0.432
 4770SOL    HW124644   0.041   9.758   0.457
 4770SOL    HW224645   0.084   9.910   0.498
 4771SOL     OW24646   1.073   6.832   0.366
 4771SOL    HW124647   1.094   6.763   0.296
 4771SOL    HW224648   0.995   6.887   0.337
 4772SOL     OW24649   9.588   6.215   2.932
 4772SOL    HW124650   9.654   6.176   2.997
 4772SOL    HW224651   9.582   6.156   2.852
 4773SOL     OW24652   1.806   9.015   0.156
 4773SOL    HW124653   1.864   8.955   0.211
 4773SOL    HW224654   1.863   9.072   0.097
 4774SOL     OW24655   7.450   0.552   2.789
 4774SOL    HW124656   7.372   0.493   2.808
 4774SOL    HW224657   7.423   0.625   2.726
 4775SOL     OW24658   9.320   6.453   1.900
 4775SOL    HW124659   9.273   6.536   1.931
 4775SOL    HW224660   9.418   6.460   1.918
 4776SOL     OW24661   3.331   5.898   3.150
 4776SOL    HW124662   3.358   5.802   3.142
 4776SOL    HW224663   3.389   5.943   3.218
 4777SOL     OW24664   8.770   2.284   0.759
 4777SOL    HW124665   8.843   2.246   0.815
 4777SOL    HW224666   8.694   2.313   0.818
 4778SOL     OW24667   7.658   6.864   2.411
 4778SOL    HW124668   7.645   6.765   2.404
 4778SOL    HW224669   7.652   6.892   2.507
 4779SOL     OW24670   8.604   7.530   1.642
 4779SOL    HW124671   8.555   7.603   1.594
 4779SOL    HW224672   8.701   7.535   1.620
 4780SOL     OW24673   1.189   3.857   1.293
 4780SOL    HW124674   1.254   3.848   1.217
 4780SOL    HW224675   1.190   3.774   1.348
 4781SOL     OW24676   3.417   4.278   2.364
 4781SOL    HW124677   3.511   4.272   2.396
 4781SOL    HW224678   3.369   4.192   2.386
 4782SOL     OW24679   3.622   5.765   1.525
 4782SOL    HW124680   3.710   5.718   1.537
 4782SOL    HW224681   3.560   5.707   1.473
 4783SOL     OW24682   8.368   3.178   2.008
 4783SOL    HW124683   8.381   3.224   2.096
 4783SOL    HW224684   8.285   3.214   1.964
 4784SOL     OW24685   1.563   0.172   0.348
 4784SOL    HW124686   1.654   0.211   0.355
 4784SOL    HW224687   1.533   0.171   0.252
 4785SOL     OW24688   8.672   6.395   2.995
 4785SOL    HW124689   8.711   6.338   3.067
 4785SOL    HW224690   8.709   6.366   2.906
 4786SOL     OW24691   2.139   0.215   0.609
 4786SOL    HW124692   2.145   0.128   0.659
 4786SOL    HW224693   2.063   0.269   0.646
 4787SOL     OW24694   0.493   4.362   0.648
 4787SOL    HW124695   0.407   4.338   0.603
 4787SOL    HW224696   0.554   4.282   0.647
 4788SOL     OW24697   0.782   2.281   0.619
 4788SOL    HW124698   0.779   2.360   0.680
 4788SOL    HW224699   0.691   2.241   0.612
 4789SOL     OW24700   2.531   1.743   2.000
 4789SOL    HW124701   2.561   1.796   1.920
 4789SOL    HW224702   2.570   1.652   1.996
 4790SOL     OW24703   0.017   9.618   2.870
 4790SOL    HW124704   9.954   9.614   2.792
 4790SOL    HW224705   0.063   9.707   2.872
 4791SOL     OW24706   3.768   2.490   0.932
 4791SOL    HW124707   3.840   2.506   1.000
 4791SOL    HW224708   3.688   2.547   0.954
 4792SOL     OW24709   9.773   4.343   1.451
 4792SOL    HW124710   9.818   4.267   1.498
 4792SOL    HW224711   9.678   4.319   1.432
 4793SOL     OW24712   3.516   0.405   1.920
 4793SOL    HW124713   3.430   0.412   1.969
 4793SOL    HW224714   3.517   0.469   1.843
 4794SOL     OW24715   2.913   2.343   0.415
 4794SOL    HW124716   2.943   2.281   0.488
 4794SOL    HW224717   2.867   2.421   0.456
 4795SOL     OW24718   4.566   1.545   1.571
 4795SOL    HW124719   4.479   1.496   1.568
 4795SOL    HW224720   4.553   1.634   1.616
 4796SOL     OW24721   2.320   4.109   2.337
 4796SOL    HW124722   2.349   4.181   2.274
 4796SOL    HW224723   2.225   4.083   2.318
 4797SOL     OW24724   5.522   7.842   2.983
 4797SOL    HW124725   5.593   7.776   2.956
 4797SOL    HW224726   5.449   7.794   3.031
 4798SOL     OW24727   9.811   4.749   0.856
 4798SOL    HW124728   9.809   4.654   0.823
 4798SOL    HW224729   9.891   4.795   0.819
 4799SOL     OW24730   6.706   8.920   3.121
 4799SOL    HW124731   6.792   8.879   3.148
 4799SOL    HW224732   6.723   9.012   3.086
 4800SOL     OW24733   9.663   5.223   1.780
 4800SOL    HW124734   9.626   5.315   1.792
 4800SOL    HW224735   9.715   5.197   1.862
 4801SOL     OW24736   9.260   4.349   1.472
 4801SOL    HW124737   9.182   4.395   1.430
 4801SOL    HW224738   9.234   4.256   1.497
 4802SOL     OW24739   0.560   5.284   1.476
 4802SOL    HW124740   0.538   5.339   1.396
 4802SOL    HW224741   0.541   5.337   1.559
 4803SOL     OW24742   3.709   8.565   2.602
 4803SOL    HW124743   3.764   8.504   2.545
 4803SOL    HW224744   3.651   8.512   2.663
 4804SOL     OW24745   8.118   7.117   0.606
 4804SOL    HW124746   8.138   7.215   0.618
 4804SOL    HW224747   8.171   7.082   0.529
 4805SOL     OW24748   4.035   1.256   3.107
 4805SOL    HW124749   4.129   1.285   3.125
 4805SOL    HW224750   3.984   1.255   3.193
 4806SOL     OW24751   9.837   3.810   2.834
 4806SOL    HW124752   9.818   3.764   2.921
 4806SOL    HW224753   9.801   3.904   2.837
 4807SOL     OW24754   1.636   5.405   1.225
 4807SOL    HW124755   1.625   5.307   1.241
 4807SOL    HW224756   1.661   5.420   1.129
 4808SOL     OW24757   1.487   1.841   2.221
 4808SOL    HW124758   1.486   1.902   2.142
 4808SOL    HW224759   1.457   1.750   2.194
 4809SOL     OW24760   2.690   6.661   2.566
 4809SOL    HW124761   2.672   6.581   2.624
 4809SOL    HW224762   2.666   6.744   2.615
 4810SOL     OW24763   1.661   2.518   1.140
 4810SOL    HW124764   1.676   2.485   1.233
 4810SOL    HW224765   1.691   2.613   1.133
 4811SOL     OW24766   1.613   9.364   0.827
 4811SOL    HW124767   1.593   9.437   0.761
 4811SOL    HW224768   1.584   9.393   0.918
 4812SOL     OW24769   4.184   3.677   2.590
 4812SOL    HW124770   4.264   3.637   2.544
 4812SOL    HW224771   4.127   3.603   2.626
 4813SOL     OW24772   7.928   6.931   2.908
 4813SOL    HW124773   7.905   6.972   2.820
 4813SOL    HW224774   7.955   7.002   2.972
 4814SOL     OW24775   8.898   6.070   2.899
 4814SOL    HW124776   8.879   5.988   2.845
 4814SOL    HW224777   8.867   6.151   2.848
 4815SOL     OW24778   2.581   3.082   2.659
 4815SOL    HW124779   2.642   3.115   2.731
 4815SOL    HW224780   2.532   3.159   2.618
 4816SOL     OW24781   1.853   3.487   0.781
 4816SOL    HW124782   1.833   3.391   0.800
 4816SOL    HW224783   1.843   3.541   0.865
 4817SOL     OW24784   8.734   8.595   1.268
 4817SOL    HW124785   8.690   8.507   1.285
 4817SOL    HW224786   8.821   8.599   1.317
 4818SOL     OW24787   0.514   6.785   1.384
 4818SOL    HW124788   0.543   6.754   1.293
 4818SOL    HW224789   0.586   6.840   1.425
 4819SOL     OW24790   2.535   7.402   2.909
 4819SOL    HW124791   2.516   7.308   2.936
 4819SOL    HW224792   2.561   7.455   2.989
 4820SOL     OW24793   3.693   2.731   2.717
 4820SOL    HW124794   3.779   2.760   2.675
 4820SOL    HW224795   3.633   2.811   2.728
 4821SOL     OW24796   0.540   5.073   1.752
 4821SOL    HW124797   0.620   5.132   1.763
 4821SOL    HW224798   0.462   5.128   1.721
 4822SOL     OW24799   2.494   0.518   0.531
 4822SOL    HW124800   2.516   0.555   0.621
 4822SOL    HW224801   2.578   0.507   0.477
 4823SOL     OW24802   9.996   1.005   0.400
 4823SOL    HW124803   0.058   1.082   0.413
 4823SOL    HW224804   0.048   0.925   0.370
 4824SOL     OW24805   1.499   1.862   2.650
 4824SOL    HW124806   1.403   1.879   2.670
 4824SOL    HW224807   1.553   1.873   2.733
 4825SOL     OW24808   5.428   8.641   1.850
 4825SOL    HW124809   5.344   8.682   1.815
 4825SOL    HW224810   5.417   8.542   1.856
 4826SOL     OW24811   1.297   2.328   0.943
 4826SOL    HW124812   1.219   2.390   0.957
 4826SOL    HW224813   1.378   2.382   0.921
 4827SOL     OW24814   2.760   0.163   0.126
 4827SOL    HW124815   2.669   0.136   0.159
 4827SOL    HW224816   2.818   0.082   0.117
 4828SOL     OW24817   8.366   1.851   2.227
 4828SOL    HW124818   8.315   1.765   2.221
 4828SOL    HW224819   8.303   1.927   2.214
 4829SOL     OW24820   1.213   0.847   0.882
 4829SOL    HW124821   1.176   0.769   0.933
 4829SOL    HW224822   1.161   0.929   0.904
 4830SOL     OW24823   1.836   0.679   0.338
 4830SOL    HW124824   1.741   0.673   0.306
 4830SOL    HW224825   1.895   0.704   0.262
 4831SOL     OW24826   1.034   6.240   2.215
 4831SOL    HW124827   1.041   6.289   2.128
 4831SOL    HW224828   1.105   6.170   2.220
 4832SOL     OW24829   3.099   7.513   1.228
 4832SOL    HW124830   3.189   7.542   1.260
 4832SOL    HW224831   3.038   7.500   1.306
 4833SOL     OW24832   2.745   7.010   1.103
 4833SOL    HW124833   2.749   6.961   1.190
 4833SOL    HW224834   2.838   7.018   1.066
 4834SOL     OW24835   2.581   8.637   3.062
 4834SOL    HW124836   2.604   8.732   3.085
 4834SOL    HW224837   2.617   8.576   3.133
 4835SOL     OW24838   5.616   7.483   2.279
 4835SOL    HW124839   5.714   7.500   2.273
 4835SOL    HW224840   5.599   7.404   2.337
 4836SOL     OW24841   1.794   7.248   2.298
 4836SOL    HW124842   1.874   7.247   2.359
 4836SOL    HW224843   1.729   7.178   2.327
 4837SOL     OW24844   1.088   0.129   0.780
 4837SOL    HW124845   1.182   0.114   0.748
 4837SOL    HW224846   1.031   0.051   0.755
 4838SOL     OW24847   3.179   7.031   2.399
 4838SOL    HW124848   3.191   6.932   2.407
 4838SOL    HW224849   3.119   7.063   2.473
 4839SOL     OW24850   1.735   8.366   0.391
 4839SOL    HW124851   1.832   8.362   0.414
 4839SOL    HW224852   1.693   8.445   0.435
 4840SOL     OW24853   4.599   3.275   2.914
 4840SOL    HW124854   4.557   3.335   2.983
 4840SOL    HW224855   4.645   3.199   2.961
 4841SOL     OW24856   2.628   2.226   0.634
 4841SOL    HW124857   2.587   2.187   0.552
 4841SOL    HW224858   2.570   2.299   0.670
 4842SOL     OW24859   1.537   7.350   1.684
 4842SOL    HW124860   1.507   7.269   1.633
 4842SOL    HW224861   1.525   7.431   1.626
 4843SOL     OW24862   0.842   2.885   0.259
 4843SOL    HW124863   0.915   2.884   0.191
 4843SOL    HW224864   0.839   2.797   0.306
 4844SOL     OW24865   2.900   5.432   1.586
 4844SOL    HW124866   2.880   5.373   1.507
 4844SOL    HW224867   2.995   5.417   1.615
 4845SOL     OW24868   1.346   9.375   2.828
 4845SOL    HW124869   1.439   9.367   2.791
 4845SOL    HW224870   1.294   9.441   2.773
 4846SOL     OW24871   9.832   9.967   3.077
 4846SOL    HW124872   9.926   0.000   3.076
 4846SOL    HW224873   9.826   9.885   3.134
 4847SOL     OW24874   2.048   2.534   0.253
 4847SOL    HW124875   1.987   2.571   0.183
 4847SOL    HW224876   2.141   2.529   0.217
 4848SOL     OW24877   8.101   7.891   0.126
 4848SOL    HW124878   8.095   7.932   0.217
 4848SOL    HW224879   8.161   7.811   0.130
 4849SOL     OW24880   2.164   7.703   3.051
 4849SOL    HW124881   2.144   7.606   3.040
 4849SOL    HW224882   2.079   7.756   3.049
 4850SOL     OW24883   3.598   0.006   0.938
 4850SOL    HW124884   3.689   0.020   0.899
 4850SOL    HW224885   3.536   0.078   0.906
 4851SOL     OW24886   9.599   2.046   3.080
 4851SOL    HW124887   9.577   2.021   3.174
 4851SOL    HW224888   9.541   1.994   3.017
 4852SOL     OW24889   0.184   9.544   2.020
 4852SOL    HW124890   0.249   9.520   2.093
 4852SOL    HW224891   0.092   9.548   2.058
 4853SOL     OW24892   7.668   0.615   2.561
 4853SOL    HW124893   7.705   0.640   2.650
 4853SOL    HW224894   7.625   0.524   2.567
 4854SOL     OW24895   3.942   0.149   1.444
 4854SOL    HW124896   3.902   0.074   1.391
 4854SOL    HW224897   3.998   0.207   1.384
 4855SOL     OW24898   0.473   0.429   1.496
 4855SOL    HW124899   0.393   0.440   1.436
 4855SOL    HW224900   0.443   0.426   1.591
 4856SOL     OW24901   0.084   8.083   0.584
 4856SOL    HW124902   0.118   8.176   0.568
 4856SOL    HW224903   0.024   8.056   0.509
 4857SOL     OW24904   8.009   4.702   0.838
 4857SOL    HW124905   7.984   4.614   0.797
 4857SOL    HW224906   7.959   4.716   0.923
 4858SOL     OW24907   9.999   3.273   1.718
 4858SOL    HW124908   0.060   3.352   1.724
 4858SOL    HW224909   0.045   3.193   1.756
 4859SOL     OW24910   2.228   0.791   2.173
 4859SOL    HW124911   2.264   0.733   2.246
 4859SOL    HW224912   2.129   0.778   2.166
 4860SOL     OW24913   4.183   2.312   2.526
 4860SOL    HW124914   4.195   2.246   2.600
 4860SOL    HW224915   4.097   2.293   2.478
 4861SOL     OW24916   0.561   2.879   0.317
 4861SOL    HW124917   0.519   2.970   0.322
 4861SOL    HW224918   0.651   2.887   0.274
 4862SOL     OW24919   8.819   5.872   0.364
 4862SOL    HW124920   8.787   5.778   0.352
 4862SOL    HW224921   8.917   5.871   0.385
 4863SOL     OW24922   4.487   4.092   1.732
 4863SOL    HW124923   4.465   4.091   1.830
 4863SOL    HW224924   4.464   4.181   1.694
 4864SOL     OW24925   9.049   4.721   1.238
 4864SOL    HW124926   8.996   4.771   1.169
 4864SOL    HW224927   9.046   4.770   1.325
 4865SOL     OW24928   0.417   1.785   1.147
 4865SOL    HW124929   0.324   1.764   1.117
 4865SOL    HW224930   0.445   1.873   1.108
 4866SOL     OW24931   7.139   8.758   1.682
 4866SOL    HW124932   7.195   8.834   1.714
 4866SOL    HW224933   7.177   8.722   1.597
 4867SOL     OW24934   1.427   4.103   0.298
 4867SOL    HW124935   1.514   4.094   0.249
 4867SOL    HW224936   1.438   4.169   0.373
 4868SOL     OW24937   0.837   2.919   3.109
 4868SOL    HW124938   0.841   2.957   3.202
 4868SOL    HW224939   0.840   2.993   3.042
 4869SOL     OW24940   9.652   2.274   2.937
 4869SOL    HW124941   9.646   2.194   2.997
 4869SOL    HW224942   9.650   2.245   2.842
 4870SOL     OW24943   7.858   7.061   2.673
 4870SOL    HW124944   7.841   7.145   2.725
 4870SOL    HW224945   7.773   7.008   2.667
 4871SOL     OW24946   9.771   9.539   1.602
 4871SOL    HW124947   9.746   9.626   1.559
 4871SOL    HW224948   9.769   9.466   1.534
 4872SOL     OW24949   8.796   8.818   1.518
 4872SOL    HW124950   8.700   8.791   1.508
 4872SOL    HW224951   8.855   8.741   1.495
 4873SOL     OW24952   8.140   4.290   1.604
 4873SOL    HW124953   8.087   4.206   1.601
 4873SOL    HW224954   8.192   4.294   1.690
 4874SOL     OW24955   0.006   8.381   2.699
 4874SOL    HW124956   0.057   8.295   2.698
 4874SOL    HW224957   9.938   8.378   2.773
 4875SOL     OW24958   1.897   4.564   2.580
 4875SOL    HW124959   1.818   4.625   2.590
 4875SOL    HW224960   1.978   4.618   2.557
 4876SOL     OW24961   8.479   4.371   1.559
 4876SOL    HW124962   8.407   4.374   1.490
 4876SOL    HW224963   8.446   4.410   1.644
 4877SOL     OW24964   5.034   3.806   1.089
 4877SOL    HW124965   5.116   3.761   1.055
 4877SOL    HW224966   5.058   3.866   1.166
 4878SOL     OW24967   0.556   2.029   1.048
 4878SOL    HW124968   0.591   1.951   0.996
 4878SOL    HW224969   0.615   2.108   1.032
 4879SOL     OW24970   2.819   9.882   2.000
 4879SOL    HW124971   2.784   9.937   1.924
 4879SOL    HW224972   2.768   9.796   2.006
 4880SOL     OW24973   0.992   5.512   1.784
 4880SOL    HW124974   1.032   5.595   1.747
 4880SOL    HW224975   0.897   5.530   1.810
 4881SOL     OW24976   9.833   1.703   0.522
 4881SOL    HW124977   9.826   1.716   0.424
 4881SOL    HW224978   9.885   1.778   0.562
 4882SOL     OW24979   8.929   9.816   3.001
 4882SOL    HW124980   8.855   9.882   2.985
 4882SOL    HW224981   8.957   9.820   3.097
 4883SOL     OW24982   3.109   2.398   1.796
 4883SOL    HW124983   3.204   2.424   1.779
 4883SOL    HW224984   3.055   2.410   1.713
 4884SOL     OW24985   2.511   3.150   1.992
 4884SOL    HW124986   2.439   3.216   1.968
 4884SOL    HW224987   2.495   3.117   2.085
 4885SOL     OW24988   6.936   8.214   2.769
 4885SOL    HW124989   6.897   8.217   2.861
 4885SOL    HW224990   6.981   8.301   2.749
 4886SOL     OW24991   3.549   6.212   2.092
 4886SOL    HW124992   3.553   6.129   2.035
 4886SOL    HW224993   3.506   6.286   2.039
 4887SOL     OW24994   0.306   7.255   0.360
 4887SOL    HW124995   0.299   7.318   0.437
 4887SOL    HW224996   0.403   7.243   0.337
 4888SOL     OW24997   8.652   5.394   0.779
 4888SOL    HW124998   8.569   5.447   0.759
 4888SOL    HW224999   8.695   5.429   0.862
 4889SOL     OW25000   9.078   5.201   2.109
 4889SOL    HW125001   9.013   5.201   2.185
 4889SOL    HW225002   9.086   5.294   2.072
 4890SOL     OW25003   1.452   9.800   1.877
 4890SOL    HW125004   1.443   9.755   1.789
 4890SOL    HW225005   1.420   9.739   1.950
 4891SOL     OW25006   2.894   7.322   2.265
 4891SOL    HW125007   2.834   7.368   2.331
 4891SOL    HW225008   2.989   7.349   2.282
 4892SOL     OW25009   9.734   3.337   1.745
 4892SOL    HW125010   9.833   3.331   1.731
 4892SOL    HW225011   9.687   3.318   1.659
 4893SOL     OW25012   9.493   9.259   2.809
 4893SOL    HW125013   9.518   9.205   2.889
 4893SOL    HW225014   9.564   9.328   2.792
 4894SOL     OW25015   0.359   4.034   1.959
 4894SOL    HW125016   0.379   4.056   2.054
 4894SOL    HW225017   0.376   4.115   1.902
 4895SOL     OW25018   9.581   5.504   1.490
 4895SOL    HW125019   9.652   5.461   1.546
 4895SOL    HW225020   9.527   5.566   1.547
 4896SOL     OW25021   8.193   3.763   1.801
 4896SOL    HW125022   8.218   3.721   1.714
 4896SOL    HW225023   8.171   3.692   1.868
 4897SOL     OW25024   6.053   8.614   2.417
 4897SOL    HW125025   6.133   8.565   2.452
 4897SOL    HW225026   5.994   8.550   2.367
 4898SOL     OW25027   3.571   4.177   0.267
 4898SOL    HW125028   3.488   4.170   0.212
 4898SOL    HW225029   3.588   4.089   0.312
 4899SOL     OW25030   5.798   8.201   2.887
 4899SOL    HW125031   5.721   8.164   2.938
 4899SOL    HW225032   5.770   8.285   2.841
 4900SOL     OW25033   9.196   4.074   1.488
 4900SOL    HW125034   9.285   4.032   1.472
 4900SOL    HW225035   9.127   4.029   1.433
 4901SOL     OW25036   3.945   3.164   0.791
 4901SOL    HW125037   3.979   3.240   0.846
 4901SOL    HW225038   3.867   3.195   0.736
 4902SOL     OW25039   9.012   4.683   0.469
 4902SOL    HW125040   8.942   4.613   0.484
 4902SOL    HW225041   9.103   4.640   0.469
 4903SOL     OW25042   9.735   8.467   0.458
 4903SOL    HW125043   9.674   8.387   0.460
 4903SOL    HW225044   9.706   8.533   0.527
 4904SOL     OW25045   2.763   3.607   0.431
 4904SOL    HW125046   2.675   3.630   0.472
 4904SOL    HW225047   2.821   3.688   0.428
 4905SOL     OW25048   9.639   6.492   2.489
 4905SOL    HW125049   9.688   6.575   2.516
 4905SOL    HW225050   9.561   6.478   2.549
 4906SOL     OW25051   4.622   3.176   0.580
 4906SOL    HW125052   4.663   3.095   0.536
 4906SOL    HW225053   4.650   3.258   0.530
 4907SOL     OW25054   0.485   6.455   0.319
 4907SOL    HW125055   0.412   6.488   0.380
 4907SOL    HW225056   0.542   6.390   0.368
 4908SOL     OW25057   9.608   5.370   3.089
 4908SOL    HW125058   9.551   5.291   3.068
 4908SOL    HW225059   9.553   5.438   3.138
 4909SOL     OW25060   9.065   3.881   1.336
 4909SOL    HW125061   9.121   3.806   1.373
 4909SOL    HW225062   8.971   3.850   1.326
 4910SOL     OW25063   9.558   8.455   2.916
 4910SOL    HW125064   9.484   8.390   2.904
 4910SOL    HW225065   9.552   8.527   2.846
 4911SOL     OW25066   2.155   3.103   2.069
 4911SOL    HW125067   2.217   3.177   2.042
 4911SOL    HW225068   2.131   3.113   2.165
 4912SOL     OW25069   8.183   4.600   1.215
 4912SOL    HW125070   8.175   4.699   1.206
 4912SOL    HW225071   8.260   4.567   1.160
 4913SOL     OW25072   0.041   0.587   0.890
 4913SOL    HW125073   0.128   0.558   0.848
 4913SOL    HW225074   9.990   0.644   0.825
 4914SOL     OW25075   3.464   6.702   1.800
 4914SOL    HW125076   3.428   6.608   1.801
 4914SOL    HW225077   3.397   6.762   1.755
 4915SOL     OW25078   8.408   4.319   0.284
 4915SOL    HW125079   8.371   4.412   0.278
 4915SOL    HW225080   8.493   4.320   0.336
 4916SOL     OW25081   0.838   3.694   2.292
 4916SOL    HW125082   0.743   3.698   2.261
 4916SOL    HW225083   0.890   3.769   2.250
 4917SOL     OW25084   0.971   8.054   2.951
 4917SOL    HW125085   0.986   8.081   2.856
 4917SOL    HW225086   0.989   8.132   3.011
 4918SOL     OW25087   1.785   6.196   0.516
 4918SOL    HW125088   1.783   6.155   0.425
 4918SOL    HW225089   1.771   6.295   0.509
 4919SOL     OW25090   1.132   3.767   0.168
 4919SOL    HW125091   1.149   3.859   0.202
 4919SOL    HW225092   1.036   3.760   0.138
 4920SOL     OW25093   1.439   6.691   2.147
 4920SOL    HW125094   1.528   6.660   2.115
 4920SOL    HW225095   1.368   6.626   2.119
 4921SOL     OW25096   3.113   8.221   0.662
 4921SOL    HW125097   3.201   8.218   0.614
 4921SOL    HW225098   3.040   8.199   0.598
 4922SOL     OW25099   9.905   3.263   0.260
 4922SOL    HW125100   9.993   3.306   0.241
 4922SOL    HW225101   9.918   3.166   0.281
 4923SOL     OW25102   9.452   1.550   1.285
 4923SOL    HW125103   9.355   1.553   1.260
 4923SOL    HW225104   9.487   1.642   1.296
 4924SOL     OW25105   0.473   8.770   1.271
 4924SOL    HW125106   0.413   8.814   1.337
 4924SOL    HW225107   0.564   8.813   1.275
 4925SOL     OW25108   4.446   7.976   3.111
 4925SOL    HW125109   4.517   7.907   3.097
 4925SOL    HW225110   4.373   7.961   3.044
 4926SOL     OW25111   8.611   7.595   1.912
 4926SOL    HW125112   8.598   7.693   1.899
 4926SOL    HW225113   8.612   7.549   1.824
 4927SOL     OW25114   7.983   1.662   0.359
 4927SOL    HW125115   7.937   1.750   0.352
 4927SOL    HW225116   8.080   1.674   0.340
 4928SOL     OW25117   3.167   3.038   0.880
 4928SOL    HW125118   3.180   3.106   0.807
 4928SOL    HW225119   3.171   2.947   0.840
 4929SOL     OW25120   1.111   1.810   2.504
 4929SOL    HW125121   1.147   1.836   2.594
 4929SOL    HW225122   1.170   1.846   2.433
 4930SOL     OW25123   7.817   1.595   2.607
 4930SOL    HW125124   7.785   1.661   2.674
 4930SOL    HW225125   7.895   1.544   2.646
 4931SOL     OW25126   8.616   2.524   2.469
 4931SOL    HW125127   8.540   2.508   2.532
 4931SOL    HW225128   8.697   2.474   2.501
 4932SOL     OW25129   9.747   7.201   1.100
 4932SOL    HW125130   9.768   7.104   1.090
 4932SOL    HW225131   9.650   7.216   1.081
 4933SOL     OW25132   1.411   2.835   0.586
 4933SOL    HW125133   1.459   2.902   0.642
 4933SOL    HW225134   1.344   2.881   0.528
 4934SOL     OW25135   1.580   3.107   2.961
 4934SOL    HW125136   1.653   3.154   2.910
 4934SOL    HW225137   1.520   3.059   2.896
 4935SOL     OW25138   0.626   9.627   3.004
 4935SOL    HW125139   0.631   9.532   3.034
 4935SOL    HW225140   0.705   9.648   2.946
 4936SOL     OW25141   2.247   5.403   2.921
 4936SOL    HW125142   2.267   5.315   2.878
 4936SOL    HW225143   2.214   5.467   2.851
 4937SOL     OW25144   9.250   7.679   1.866
 4937SOL    HW125145   9.178   7.717   1.808
 4937SOL    HW225146   9.259   7.581   1.848
 4938SOL     OW25147   2.471   4.399   2.462
 4938SOL    HW125148   2.443   4.494   2.451
 4938SOL    HW225149   2.546   4.379   2.398
 4939SOL     OW25150   1.262   8.553   2.542
 4939SOL    HW125151   1.191   8.518   2.480
 4939SOL    HW225152   1.234   8.642   2.578
 4940SOL     OW25153   8.664   4.784   0.982
 4940SOL    HW125154   8.638   4.730   1.062
 4940SOL    HW225155   8.593   4.852   0.964
 4941SOL     OW25156   1.246   6.198   0.893
 4941SOL    HW125157   1.301   6.117   0.915
 4941SOL    HW225158   1.297   6.280   0.918
 4942SOL     OW25159   3.460   0.087   2.472
 4942SOL    HW125160   3.446   0.059   2.377
 4942SOL    HW225161   3.400   0.033   2.531
 4943SOL     OW25162   9.221   6.655   0.618
 4943SOL    HW125163   9.140   6.713   0.608
 4943SOL    HW225164   9.201   6.564   0.584
 4944SOL     OW25165   1.711   3.987   1.350
 4944SOL    HW125166   1.720   4.086   1.339
 4944SOL    HW225167   1.671   3.967   1.440
 4945SOL     OW25168   3.107   7.175   1.376
 4945SOL    HW125169   3.148   7.255   1.421
 4945SOL    HW225170   3.049   7.205   1.301
 4946SOL     OW25171   9.396   2.946   0.333
 4946SOL    HW125172   9.374   3.005   0.410
 4946SOL    HW225173   9.380   2.995   0.247
 4947SOL     OW25174   2.033   5.043   1.858
 4947SOL    HW125175   2.053   5.086   1.770
 4947SOL    HW225176   1.954   5.088   1.900
 4948SOL     OW25177   4.256   4.251   2.868
 4948SOL    HW125178   4.263   4.300   2.782
 4948SOL    HW225179   4.346   4.244   2.911
 4949SOL     OW25180   0.858   0.749   0.678
 4949SOL    HW125181   0.773   0.736   0.628
 4949SOL    HW225182   0.923   0.677   0.652
 4950SOL     OW25183   8.321   7.221   2.805
 4950SOL    HW125184   8.382   7.262   2.873
 4950SOL    HW225185   8.241   7.280   2.792
 4951SOL     OW25186   8.917   4.433   1.580
 4951SOL    HW125187   8.823   4.437   1.546
 4951SOL    HW225188   8.981   4.446   1.504
 4952SOL     OW25189   3.446   9.997   2.208
 4952SOL    HW125190   3.539   0.028   2.186
 4952SOL    HW225191   3.448   9.898   2.225
 4953SOL     OW25192   1.897   2.764   2.239
 4953SOL    HW125193   1.969   2.771   2.170
 4953SOL    HW225194   1.850   2.852   2.246
 4954SOL     OW25195   6.964   0.742   2.865
 4954SOL    HW125196   6.897   0.676   2.898
 4954SOL    HW225197   6.947   0.831   2.907
 4955SOL     OW25198   2.342   9.503   1.817
 4955SOL    HW125199   2.272   9.432   1.820
 4955SOL    HW225200   2.363   9.526   1.722
 4956SOL     OW25201   3.234   2.351   0.987
 4956SOL    HW125202   3.155   2.293   1.003
 4956SOL    HW225203   3.300   2.302   0.930
 4957SOL     OW25204   4.128   2.511   0.229
 4957SOL    HW125205   4.122   2.610   0.239
 4957SOL    HW225206   4.200   2.476   0.289
 4958SOL     OW25207   3.409   6.399   1.947
 4958SOL    HW125208   3.320   6.365   1.918
 4958SOL    HW225209   3.396   6.475   2.011
 4959SOL     OW25210   9.446   6.090   1.122
 4959SOL    HW125211   9.450   5.997   1.156
 4959SOL    HW225212   9.539   6.123   1.103
 4960SOL     OW25213   2.991   1.727   1.444
 4960SOL    HW125214   3.017   1.696   1.535
 4960SOL    HW225215   3.063   1.787   1.408
 4961SOL     OW25216   3.220   1.323   0.101
 4961SOL    HW125217   3.210   1.226   0.082
 4961SOL    HW225218   3.135   1.358   0.142
 4962SOL     OW25219   4.237   7.976   1.925
 4962SOL    HW125220   4.235   8.075   1.915
 4962SOL    HW225221   4.154   7.936   1.886
 4963SOL     OW25222   4.145   9.975   2.335
 4963SOL    HW125223   4.082   9.903   2.305
 4963SOL    HW225224   4.219   9.935   2.388
 4964SOL     OW25225   1.902   1.756   2.864
 4964SOL    HW125226   1.915   1.665   2.824
 4964SOL    HW225227   1.986   1.785   2.910
 4965SOL     OW25228   2.194   9.978   0.734
 4965SOL    HW125229   2.290   9.953   0.737
 4965SOL    HW225230   2.141   9.904   0.691
 4966SOL     OW25231   4.087   1.289   0.474
 4966SOL    HW125232   4.019   1.362   0.472
 4966SOL    HW225233   4.108   1.260   0.381
 4967SOL     OW25234   1.881   6.389   1.614
 4967SOL    HW125235   1.807   6.455   1.627
 4967SOL    HW225236   1.885   6.328   1.693
 4968SOL     OW25237   4.015   6.663   2.128
 4968SOL    HW125238   3.976   6.749   2.096
 4968SOL    HW225239   3.945   6.592   2.125
 4969SOL     OW25240   1.190   6.757   1.379
 4969SOL    HW125241   1.231   6.666   1.371
 4969SOL    HW225242   1.166   6.775   1.475
 4970SOL     OW25243   3.499   3.090   2.043
 4970SOL    HW125244   3.541   3.049   1.962
 4970SOL    HW225245   3.451   3.019   2.095
 4971SOL     OW25246   0.364   6.313   0.748
 4971SOL    HW125247   0.463   6.307   0.755
 4971SOL    HW225248   0.336   6.409   0.748
 4972SOL     OW25249   9.747   7.623   1.853
 4972SOL    HW125250   9.711   7.707   1.894
 4972SOL    HW225251   9.672   7.571   1.813
 4973SOL     OW25252   7.690   2.244   0.953
 4973SOL    HW125253   7.592   2.253   0.936
 4973SOL    HW225254   7.741   2.267   0.870
 4974SOL     OW25255   9.025   4.132   0.479
 4974SOL    HW125256   9.060   4.192   0.407
 4974SOL    HW225257   8.963   4.065   0.439
 4975SOL     OW25258   8.628   3.303   2.993
 4975SOL    HW125259   8.670   3.394   2.987
 4975SOL    HW225260   8.693   3.234   2.962
 4976SOL     OW25261   8.629   9.394   2.889
 4976SOL    HW125262   8.559   9.423   2.954
 4976SOL    HW225263   8.707   9.457   2.894
 4977SOL     OW25264   3.972   5.426   2.630
 4977SOL    HW125265   3.996   5.413   2.727
 4977SOL    HW225266   3.901   5.361   2.605
 4978SOL     OW25267   0.223   0.909   2.577
 4978SOL    HW125268   0.204   0.904   2.676
 4978SOL    HW225269   0.307   0.860   2.557
 4979SOL     OW25270   2.297   3.650   1.451
 4979SOL    HW125271   2.295   3.600   1.538
 4979SOL    HW225272   2.250   3.596   1.381
 4980SOL     OW25273   2.393   4.267   2.119
 4980SOL    HW125274   2.474   4.213   2.099
 4980SOL    HW225275   2.317   4.236   2.061
 4981SOL     OW25276   0.473   2.317   2.247
 4981SOL    HW125277   0.540   2.256   2.205
 4981SOL    HW225278   0.506   2.347   2.336
 4982SOL     OW25279   8.778   2.115   1.275
 4982SOL    HW125280   8.867   2.114   1.230
 4982SOL    HW225281   8.790   2.114   1.374
 4983SOL     OW25282   7.413   9.278   2.120
 4983SOL    HW125283   7.454   9.229   2.197
 4983SOL    HW225284   7.394   9.372   2.147
 4984SOL     OW25285   8.054   6.965   2.484
 4984SOL    HW125286   8.006   6.909   2.417
 4984SOL    HW225287   7.989   6.999   2.552
 4985SOL     OW25288   8.001   8.702   2.035
 4985SOL    HW125289   8.002   8.656   1.946
 4985SOL    HW225290   7.961   8.641   2.104
 4986SOL     OW25291   3.342   0.204   0.620
 4986SOL    HW125292   3.268   0.239   0.564
 4986SOL    HW225293   3.346   0.255   0.706
 4987SOL     OW25294   8.598   9.741   2.889
 4987SOL    HW125295   8.564   9.752   2.796
 4987SOL    HW225296   8.677   9.681   2.890
 4988SOL     OW25297   9.501   0.139   1.849
 4988SOL    HW125298   9.563   0.111   1.776
 4988SOL    HW225299   9.462   0.229   1.827
 4989SOL     OW25300   9.380   2.925   2.486
 4989SOL    HW125301   9.427   3.008   2.456
 4989SOL    HW225302   9.420   2.845   2.440
 4990SOL     OW25303   8.558   0.472   2.434
 4990SOL    HW125304   8.464   0.499   2.454
 4990SOL    HW225305   8.602   0.439   2.518
 4991SOL     OW25306   5.327   9.117   2.116
 4991SOL    HW125307   5.423   9.090   2.111
 4991SOL    HW225308   5.270   9.039   2.090
 4992SOL     OW25309   2.363   0.488   2.787
 4992SOL    HW125310   2.318   0.562   2.837
 4992SOL    HW225311   2.452   0.519   2.754
 4993SOL     OW25312   1.888   6.296   1.360
 4993SOL    HW125313   1.850   6.372   1.307
 4993SOL    HW225314   1.897   6.323   1.456
 4994SOL     OW25315   0.707   5.170   2.201
 4994SOL    HW125316   0.638   5.231   2.162
 4994SOL    HW225317   0.778   5.152   2.132
 4995SOL     OW25318   4.787   2.320   2.608
 4995SOL    HW125319   4.801   2.221   2.601
 4995SOL    HW225320   4.871   2.368   2.581
 4996SOL     OW25321   1.995   0.190   1.579
 4996SOL    HW125322   2.038   0.277   1.551
 4996SOL    HW225323   2.063   0.134   1.625
 4997SOL     OW25324   4.240   7.375   2.625
 4997SOL    HW125325   4.210   7.369   2.720
 4997SOL    HW225326   4.296   7.457   2.613
 4998SOL     OW25327   9.767   9.350   1.405
 4998SOL    HW125328   9.814   9.292   1.339
 4998SOL    HW225329   9.675   9.371   1.372
 4999SOL     OW25330   2.413   3.439   2.804
 4999SOL    HW125331   2.506   3.440   2.839
 4999SOL    HW225332   2.412   3.390   2.716
 5000SOL     OW25333   3.624   1.299   2.306
 5000SOL    HW125334   3.592   1.331   2.395
 5000SOL    HW225335   3.723   1.315   2.299
 5001SOL     OW25336   0.405   8.783   0.847
 5001SOL    HW125337   0.349   8.861   0.819
 5001SOL    HW225338   0.377   8.752   0.938
 5002SOL     OW25339   4.777   9.840   0.195
 5002SOL    HW125340   4.784   9.870   0.289
 5002SOL    HW225341   4.809   9.745   0.187
 5003SOL     OW25342   6.482   9.843   2.158
 5003SOL    HW125343   6.581   9.837   2.148
 5003SOL    HW225344   6.457   9.820   2.252
 5004SOL     OW25345   4.306   8.451   2.348
 5004SOL    HW125346   4.262   8.475   2.434
 5004SOL    HW225347   4.238   8.448   2.275
 5005SOL     OW25348   7.864   5.293   2.901
 5005SOL    HW125349   7.891   5.202   2.870
 5005SOL    HW225350   7.928   5.325   2.971
 5006SOL     OW25351   8.314   0.944   0.289
 5006SOL    HW125352   8.378   0.951   0.213
 5006SOL    HW225353   8.221   0.954   0.256
 5007SOL     OW25354   2.442   9.950   2.203
 5007SOL    HW125355   2.527   9.997   2.227
 5007SOL    HW225356   2.453   9.852   2.215
 5008SOL     OW25357   2.496   6.830   2.924
 5008SOL    HW125358   2.536   6.854   2.835
 5008SOL    HW225359   2.404   6.793   2.910
 5009SOL     OW25360   1.061   0.994   2.123
 5009SOL    HW125361   1.113   1.013   2.207
 5009SOL    HW225362   1.123   0.992   2.045
 5010SOL     OW25363   8.562   2.134   1.784
 5010SOL    HW125364   8.492   2.203   1.766
 5010SOL    HW225365   8.581   2.082   1.700
 5011SOL     OW25366   7.807   4.012   0.140
 5011SOL    HW125367   7.905   4.009   0.158
 5011SOL    HW225368   7.786   3.957   0.059
 5012SOL     OW25369   4.645   9.575   2.759
 5012SOL    HW125370   4.600   9.657   2.793
 5012SOL    HW225371   4.741   9.593   2.741
 5013SOL     OW25372   2.519   6.040   2.620
 5013SOL    HW125373   2.488   6.014   2.711
 5013SOL    HW225374   2.597   6.102   2.627
 5014SOL     OW25375   8.127   4.006   1.688
 5014SOL    HW125376   8.138   3.915   1.728
 5014SOL    HW225377   8.183   4.071   1.737
 5015SOL     OW25378   0.157   6.927   1.637
 5015SOL    HW125379   0.145   7.026   1.639
 5015SOL    HW225380   0.207   6.901   1.555
 5016SOL     OW25381   8.082   0.547   1.239
 5016SOL    HW125382   8.099   0.466   1.184
 5016SOL    HW225383   7.986   0.573   1.232
 5017SOL     OW25384   9.603   4.898   2.795
 5017SOL    HW125385   9.585   4.912   2.892
 5017SOL    HW225386   9.620   4.801   2.777
 5018SOL     OW25387   2.336   1.361   2.720
 5018SOL    HW125388   2.283   1.333   2.641
 5018SOL    HW225389   2.402   1.289   2.744
 5019SOL     OW25390   0.493   6.011   2.072
 5019SOL    HW125391   0.572   6.040   2.019
 5019SOL    HW225392   0.423   5.976   2.010
 5020SOL     OW25393   9.674   8.686   0.617
 5020SOL    HW125394   9.610   8.716   0.687
 5020SOL    HW225395   9.682   8.756   0.546
 5021SOL     OW25396   5.052   9.415   1.831
 5021SOL    HW125397   5.114   9.416   1.910
 5021SOL    HW225398   5.055   9.504   1.786
 5022SOL     OW25399   3.712   0.046   2.162
 5022SOL    HW125400   3.786   0.075   2.223
 5022SOL    HW225401   3.736   9.958   2.120
 5023SOL     OW25402   3.684   1.771   2.688
 5023SOL    HW125403   3.652   1.825   2.766
 5023SOL    HW225404   3.606   1.747   2.631
 5024SOL     OW25405   2.445   2.191   0.914
 5024SOL    HW125406   2.520   2.193   0.980
 5024SOL    HW225407   2.452   2.271   0.854
 5025SOL     OW25408   4.417   2.834   2.936
 5025SOL    HW125409   4.496   2.878   2.894
 5025SOL    HW225410   4.375   2.772   2.869
 5026SOL     OW25411   2.803   2.737   1.862
 5026SOL    HW125412   2.784   2.819   1.916
 5026SOL    HW225413   2.768   2.656   1.910
 5027SOL     OW25414   9.414   2.116   2.544
 5027SOL    HW125415   9.362   2.169   2.477
 5027SOL    HW225416   9.469   2.047   2.497
 5028SOL     OW25417   1.434   4.902   2.518
 5028SOL    HW125418   1.336   4.922   2.511
 5028SOL    HW225419   1.446   4.814   2.564
 5029SOL     OW25420   0.620   2.314   0.340
 5029SOL    HW125421   0.584   2.371   0.266
 5029SOL    HW225422   0.610   2.362   0.427
 5030SOL     OW25423   2.969   9.333   1.451
 5030SOL    HW125424   2.985   9.322   1.549
 5030SOL    HW225425   3.047   9.378   1.408
 5031SOL     OW25426   3.824   8.241   1.323
 5031SOL    HW125427   3.910   8.191   1.320
 5031SOL    HW225428   3.756   8.196   1.266
 5032SOL     OW25429   2.397   8.009   2.614
 5032SOL    HW125430   2.463   7.934   2.614
 5032SOL    HW225431   2.304   7.972   2.615
 5033SOL     OW25432   4.424   7.749   1.554
 5033SOL    HW125433   4.422   7.783   1.648
 5033SOL    HW225434   4.495   7.797   1.502
 5034SOL     OW25435   0.932   4.254   0.577
 5034SOL    HW125436   1.020   4.287   0.541
 5034SOL    HW225437   0.906   4.309   0.656
 5035SOL     OW25438   3.021   1.608   0.390
 5035SOL    HW125439   3.040   1.515   0.422
 5035SOL    HW225440   2.923   1.627   0.396
 5036SOL     OW25441   1.700   4.584   0.646
 5036SOL    HW125442   1.721   4.682   0.640
 5036SOL    HW225443   1.609   4.572   0.684
 5037SOL     OW25444   4.765   7.649   1.858
 5037SOL    HW125445   4.810   7.561   1.874
 5037SOL    HW225446   4.679   7.651   1.908
 5038SOL     OW25447   0.080   2.349   0.458
 5038SOL    HW125448   0.019   2.276   0.487
 5038SOL    HW225449   0.116   2.329   0.367
 5039SOL     OW25450   1.169   0.504   2.276
 5039SOL    HW125451   1.252   0.553   2.301
 5039SOL    HW225452   1.116   0.483   2.359
 5040SOL     OW25453   2.130   1.144   0.272
 5040SOL    HW125454   2.129   1.198   0.356
 5040SOL    HW225455   2.039   1.148   0.229
 5041SOL     OW25456   3.912   0.132   2.335
 5041SOL    HW125457   3.998   0.081   2.333
 5041SOL    HW225458   3.930   0.228   2.357
 5042SOL     OW25459   0.653   7.917   2.621
 5042SOL    HW125460   0.597   7.884   2.545
 5042SOL    HW225461   0.614   7.886   2.708
 5043SOL     OW25462   8.914   1.585   3.102
 5043SOL    HW125463   8.991   1.641   3.072
 5043SOL    HW225464   8.946   1.515   3.166
 5044SOL     OW25465   0.544   7.353   2.013
 5044SOL    HW125466   0.556   7.338   2.111
 5044SOL    HW225467   0.567   7.448   1.991
 5045SOL     OW25468   9.970   8.939   0.828
 5045SOL    HW125469   0.059   8.945   0.872
 5045SOL    HW225470   9.949   8.844   0.806
 5046SOL     OW25471   2.211   5.083   0.095
 5046SOL    HW125472   2.253   5.163   0.138
 5046SOL    HW225473   2.114   5.079   0.120
 5047SOL     OW25474   0.569   0.883   2.148
 5047SOL    HW125475   0.499   0.821   2.182
 5047SOL    HW225476   0.577   0.962   2.210
 5048SOL     OW25477   0.259   1.373   1.594
 5048SOL    HW125478   0.248   1.356   1.496
 5048SOL    HW225479   0.354   1.355   1.620
 5049SOL     OW25480   5.701   8.644   2.199
 5049SOL    HW125481   5.679   8.584   2.276
 5049SOL    HW225482   5.751   8.591   2.129
 5050SOL     OW25483   8.117   8.025   2.731
 5050SOL    HW125484   8.199   7.969   2.733
 5050SOL    HW225485   8.091   8.049   2.824
 5051SOL     OW25486   3.397   9.899   2.859
 5051SOL    HW125487   3.414   9.988   2.901
 5051SOL    HW225488   3.358   9.912   2.768
 5052SOL     OW25489   9.280   3.878   0.577
 5052SOL    HW125490   9.208   3.928   0.625
 5052SOL    HW225491   9.369   3.920   0.596
 5053SOL     OW25492   0.631   7.466   1.584
 5053SOL    HW125493   0.725   7.476   1.549
 5053SOL    HW225494   0.610   7.541   1.646
 5054SOL     OW25495   2.957   9.690   2.750
 5054SOL    HW125496   2.943   9.626   2.825
 5054SOL    HW225497   3.039   9.665   2.699
 5055SOL     OW25498   0.832   5.771   1.593
 5055SOL    HW125499   0.812   5.731   1.504
 5055SOL    HW225500   0.747   5.783   1.644
 5056SOL     OW25501   4.625   6.976   3.120
 5056SOL    HW125502   4.722   7.002   3.116
 5056SOL    HW225503   4.618   6.876   3.120
 5057SOL     OW25504   4.246   0.748   2.963
 5057SOL    HW125505   4.203   0.838   2.971
 5057SOL    HW225506   4.330   0.756   2.909
 5058SOL     OW25507   2.881   9.802   1.612
 5058SOL    HW125508   2.843   9.851   1.534
 5058SOL    HW225509   2.968   9.843   1.638
 5059SOL     OW25510   1.391   8.513   0.398
 5059SOL    HW125511   1.410   8.415   0.392
 5059SOL    HW225512   1.303   8.526   0.445
 5060SOL     OW25513   9.153   6.671   1.983
 5060SOL    HW125514   9.108   6.691   1.896
 5060SOL    HW225515   9.149   6.752   2.042
 5061SOL     OW25516   4.379   0.344   1.652
 5061SOL    HW125517   4.301   0.288   1.625
 5061SOL    HW225518   4.464   0.293   1.636
 5062SOL     OW25519   8.893   7.743   0.304
 5062SOL    HW125520   8.798   7.762   0.328
 5062SOL    HW225521   8.897   7.708   0.210
 5063SOL     OW25522   4.317   9.714   1.365
 5063SOL    HW125523   4.261   9.648   1.316
 5063SOL    HW225524   4.320   9.800   1.314
 5064SOL     OW25525   4.325   9.757   2.084
 5064SOL    HW125526   4.242   9.747   2.138
 5064SOL    HW225527   4.397   9.699   2.123
 5065SOL     OW25528   0.956   4.142   2.275
 5065SOL    HW125529   1.007   4.227   2.276
 5065SOL    HW225530   0.884   4.145   2.345
 5066SOL     OW25531   2.753   8.227   0.173
 5066SOL    HW125532   2.701   8.157   0.223
 5066SOL    HW225533   2.720   8.231   0.079
 5067SOL     OW25534   2.126   1.849   3.012
 5067SOL    HW125535   2.090   1.830   3.104
 5067SOL    HW225536   2.217   1.807   3.003
 5068SOL     OW25537   9.367   0.008   0.887
 5068SOL    HW125538   9.360   0.065   0.805
 5068SOL    HW225539   9.443   9.943   0.876
 5069SOL     OW25540   9.367   8.303   1.026
 5069SOL    HW125541   9.330   8.343   1.110
 5069SOL    HW225542   9.463   8.279   1.039
 5070SOL     OW25543   8.168   4.200   0.319
 5070SOL    HW125544   8.261   4.235   0.304
 5070SOL    HW225545   8.106   4.277   0.335
 5071SOL     OW25546   1.472   0.096   2.087
 5071SOL    HW125547   1.398   0.158   2.061
 5071SOL    HW225548   1.526   0.138   2.160
 5072SOL     OW25549   1.369   2.284   0.273
 5072SOL    HW125550   1.277   2.246   0.272
 5072SOL    HW225551   1.372   2.367   0.217
 5073SOL     OW25552   3.673   5.525   3.100
 5073SOL    HW125553   3.754   5.467   3.110
 5073SOL    HW225554   3.670   5.562   3.007
 5074SOL     OW25555   3.958   1.266   2.134
 5074SOL    HW125556   3.939   1.343   2.074
 5074SOL    HW225557   3.989   1.299   2.223
 5075SOL     OW25558   2.182   2.167   2.175
 5075SOL    HW125559   2.165   2.095   2.107
 5075SOL    HW225560   2.280   2.169   2.197
 5076SOL     OW25561   4.420   1.044   2.180
 5076SOL    HW125562   4.405   1.022   2.276
 5076SOL    HW225563   4.335   1.079   2.140
 5077SOL     OW25564   8.804   7.284   1.015
 5077SOL    HW125565   8.745   7.210   0.982
 5077SOL    HW225566   8.781   7.369   0.967
 5078SOL     OW25567   3.149   9.580   0.627
 5078SOL    HW125568   3.071   9.521   0.609
 5078SOL    HW225569   3.121   9.676   0.623
 5079SOL     OW25570   8.244   6.027   0.298
 5079SOL    HW125571   8.305   5.950   0.281
 5079SOL    HW225572   8.291   6.112   0.274
 5080SOL     OW25573   9.843   7.129   1.877
 5080SOL    HW125574   9.872   7.221   1.849
 5080SOL    HW225575   9.868   7.114   1.973
 5081SOL     OW25576   0.348   0.242   0.126
 5081SOL    HW125577   0.286   0.166   0.142
 5081SOL    HW225578   0.295   0.327   0.119
 5082SOL     OW25579   2.211   7.426   2.738
 5082SOL    HW125580   2.161   7.449   2.654
 5082SOL    HW225581   2.284   7.492   2.752
 5083SOL     OW25582   3.376   3.794   2.389
 5083SOL    HW125583   3.419   3.744   2.314
 5083SOL    HW225584   3.416   3.766   2.476
 5084SOL     OW25585   8.690   0.219   3.109
 5084SOL    HW125586   8.729   0.295   3.057
 5084SOL    HW225587   8.698   0.135   3.056
 5085SOL     OW25588   3.729   0.434   0.139
 5085SOL    HW125589   3.735   0.334   0.139
 5085SOL    HW225590   3.788   0.471   0.068
 5086SOL     OW25591   0.236   1.197   2.069
 5086SOL    HW125592   0.204   1.202   1.974
 5086SOL    HW225593   0.220   1.105   2.105
 5087SOL     OW25594   3.238   0.075   2.042
 5087SOL    HW125595   3.311   0.050   2.105
 5087SOL    HW225596   3.278   0.112   1.958
 5088SOL     OW25597   1.120   9.023   3.082
 5088SOL    HW125598   1.107   8.984   2.991
 5088SOL    HW225599   1.210   9.065   3.088
 5089SOL     OW25600   7.994   7.373   2.521
 5089SOL    HW125601   8.016   7.301   2.587
 5089SOL    HW225602   7.935   7.337   2.449
 5090SOL     OW25603   3.323   9.938   0.584
 5090SOL    HW125604   3.412   9.900   0.608
 5090SOL    HW225605   3.322   0.036   0.603
 5091SOL     OW25606   4.150   3.868   1.159
 5091SOL    HW125607   4.093   3.949   1.144
 5091SOL    HW225608   4.246   3.892   1.146
 5092SOL     OW25609   3.275   4.052   2.416
 5092SOL    HW125610   3.193   4.059   2.359
 5092SOL    HW225611   3.317   3.962   2.403
 5093SOL     OW25612   5.024   2.424   2.511
 5093SOL    HW125613   5.049   2.498   2.573
 5093SOL    HW225614   5.030   2.457   2.416
 5094SOL     OW25615   2.425   5.567   0.888
 5094SOL    HW125616   2.423   5.471   0.917
 5094SOL    HW225617   2.338   5.591   0.845
 5095SOL     OW25618   0.149   7.695   1.395
 5095SOL    HW125619   0.092   7.616   1.375
 5095SOL    HW225620   0.112   7.776   1.349
 5096SOL     OW25621   0.085   6.275   0.780
 5096SOL    HW125622   0.048   6.270   0.687
 5096SOL    HW225623   0.185   6.284   0.775
 5097SOL     OW25624   2.899   8.826   1.677
 5097SOL    HW125625   2.805   8.808   1.649
 5097SOL    HW225626   2.903   8.908   1.733
 5098SOL     OW25627   4.225   3.932   0.242
 5098SOL    HW125628   4.184   4.015   0.281
 5098SOL    HW225629   4.324   3.942   0.241
 5099SOL     OW25630   0.930   6.825   1.011
 5099SOL    HW125631   0.896   6.740   1.051
 5099SOL    HW225632   0.998   6.804   0.941
 5100SOL     OW25633   1.180   8.272   1.918
 5100SOL    HW125634   1.270   8.275   1.876
 5100SOL    HW225635   1.188   8.298   2.015
 5101SOL     OW25636   3.447   9.195   2.928
 5101SOL    HW125637   3.496   9.109   2.916
 5101SOL    HW225638   3.483   9.242   3.009
 5102SOL     OW25639   8.214   6.848   1.225
 5102SOL    HW125640   8.119   6.824   1.248
 5102SOL    HW225641   8.238   6.932   1.273
 5103SOL     OW25642   4.139   7.762   2.113
 5103SOL    HW125643   4.051   7.744   2.070
 5103SOL    HW225644   4.175   7.850   2.082
 5104SOL     OW25645   3.050   1.350   0.486
 5104SOL    HW125646   3.024   1.361   0.582
 5104SOL    HW225647   3.095   1.261   0.474
 5105SOL     OW25648   5.997   9.992   2.607
 5105SOL    HW125649   5.959   0.069   2.657
 5105SOL    HW225650   6.096   0.004   2.597
 5106SOL     OW25651   3.162   4.537   0.917
 5106SOL    HW125652   3.080   4.491   0.884
 5106SOL    HW225653   3.160   4.633   0.889
 5107SOL     OW25654   1.534   3.559   1.928
 5107SOL    HW125655   1.463   3.572   1.997
 5107SOL    HW225656   1.600   3.634   1.933
 5108SOL     OW25657   7.770   7.965   2.360
 5108SOL    HW125658   7.820   8.008   2.436
 5108SOL    HW225659   7.814   7.878   2.336
 5109SOL     OW25660   2.642   8.415   1.082
 5109SOL    HW125661   2.656   8.419   1.181
 5109SOL    HW225662   2.713   8.468   1.036
 5110SOL     OW25663   1.112   1.682   0.763
 5110SOL    HW125664   1.072   1.590   0.766
 5110SOL    HW225665   1.125   1.709   0.668
 5111SOL     OW25666   7.809   9.311   1.562
 5111SOL    HW125667   7.779   9.326   1.656
 5111SOL    HW225668   7.771   9.225   1.528
 5112SOL     OW25669   7.591   8.003   1.686
 5112SOL    HW125670   7.660   7.997   1.614
 5112SOL    HW225671   7.506   8.042   1.649
 5113SOL     OW25672   1.128   6.660   0.159
 5113SOL    HW125673   1.173   6.719   0.092
 5113SOL    HW225674   1.189   6.584   0.183
 5114SOL     OW25675   1.002   5.084   2.337
 5114SOL    HW125676   0.993   5.181   2.317
 5114SOL    HW225677   0.915   5.048   2.370
 5115SOL     OW25678   4.061   9.400   2.111
 5115SOL    HW125679   3.994   9.419   2.182
 5115SOL    HW225680   4.089   9.304   2.116
 5116SOL     OW25681   2.743   9.361   1.744
 5116SOL    HW125682   2.681   9.355   1.822
 5116SOL    HW225683   2.739   9.453   1.705
 5117SOL     OW25684   1.824   8.366   2.089
 5117SOL    HW125685   1.844   8.280   2.136
 5117SOL    HW225686   1.854   8.443   2.146
 5118SOL     OW25687   0.471   8.798   1.905
 5118SOL    HW125688   0.409   8.778   1.981
 5118SOL    HW225689   0.418   8.807   1.821
 5119SOL     OW25690   3.882   1.641   2.538
 5119SOL    HW125691   3.916   1.699   2.463
 5119SOL    HW225692   3.812   1.690   2.589
 5120SOL     OW25693   2.653   2.766   0.054
 5120SOL    HW125694   2.655   2.866   0.063
 5120SOL    HW225695   2.704   2.740   4.012
 5121SOL     OW25696   1.205   8.808   2.633
 5121SOL    HW125697   1.153   8.873   2.688
 5121SOL    HW225698   1.226   8.849   2.544
 5122SOL     OW25699   2.049   5.914   0.347
 5122SOL    HW125700   2.119   5.902   0.418
 5122SOL    HW225701   1.959   5.890   0.384
 5123SOL     OW25702   0.603   2.090   2.682
 5123SOL    HW125703   0.578   2.134   2.769
 5123SOL    HW225704   0.639   1.999   2.701
 5124SOL     OW25705   2.258   6.699   1.966
 5124SOL    HW125706   2.208   6.613   1.963
 5124SOL    HW225707   2.301   6.716   1.877
 5125SOL     OW25708   4.597   1.441   1.840
 5125SOL    HW125709   4.601   1.473   1.746
 5125SOL    HW225710   4.604   1.519   1.903
 5126SOL     OW25711   4.896   2.736   0.432
 5126SOL    HW125712   4.838   2.655   0.434
 5126SOL    HW225713   4.908   2.766   0.337
 5127SOL     OW25714   0.270   6.906   1.384
 5127SOL    HW125715   0.349   6.844   1.384
 5127SOL    HW225716   0.302   7.000   1.391
 5128SOL     OW25717   8.991   8.123   0.863
 5128SOL    HW125718   9.079   8.096   0.902
 5128SOL    HW225719   8.949   8.045   0.817
 5129SOL     OW25720   8.774   5.750   1.096
 5129SOL    HW125721   8.696   5.796   1.054
 5129SOL    HW225722   8.773   5.764   1.195
 5130SOL     OW25723   2.480   9.152   2.049
 5130SOL    HW125724   2.392   9.106   2.061
 5130SOL    HW225725   2.553   9.084   2.049
 5131SOL     OW25726   8.416   0.801   1.146
 5131SOL    HW125727   8.390   0.871   1.079
 5131SOL    HW225728   8.508   0.819   1.179
 5132SOL     OW25729   3.665   5.203   1.705
 5132SOL    HW125730   3.691   5.125   1.649
 5132SOL    HW225731   3.592   5.176   1.768
 5133SOL     OW25732   9.663   9.981   1.647
 5133SOL    HW125733   9.673   0.064   1.592
 5133SOL    HW225734   9.679   9.901   1.590
 5134SOL     OW25735   5.017   7.529   2.176
 5134SOL    HW125736   5.084   7.601   2.164
 5134SOL    HW225737   4.962   7.548   2.258
 5135SOL     OW25738   4.354   9.906   0.778
 5135SOL    HW125739   4.268   9.958   0.776
 5135SOL    HW225740   4.400   9.921   0.865
 5136SOL     OW25741   4.647   1.381   2.316
 5136SOL    HW125742   4.652   1.480   2.326
 5136SOL    HW225743   4.596   1.342   2.393
 5137SOL     OW25744   1.763   2.676   2.679
 5137SOL    HW125745   1.783   2.662   2.776
 5137SOL    HW225746   1.764   2.588   2.632
 5138SOL     OW25747   1.965   4.381   2.779
 5138SOL    HW125748   1.940   4.436   2.700
 5138SOL    HW225749   2.014   4.299   2.749
 5139SOL     OW25750   8.379   7.922   0.395
 5139SOL    HW125751   8.359   7.965   0.307
 5139SOL    HW225752   8.467   7.875   0.389
 5140SOL     OW25753   5.159   1.489   1.424
 5140SOL    HW125754   5.164   1.542   1.340
 5140SOL    HW225755   5.139   1.393   1.401
 5141SOL     OW25756   1.047   4.026   2.642
 5141SOL    HW125757   1.112   3.962   2.684
 5141SOL    HW225758   1.095   4.087   2.579
 5142SOL     OW25759   9.150   2.726   2.910
 5142SOL    HW125760   9.148   2.699   2.814
 5142SOL    HW225761   9.166   2.824   2.917
 5143SOL     OW25762   4.634   8.368   1.902
 5143SOL    HW125763   4.591   8.452   1.934
 5143SOL    HW225764   4.586   8.333   1.822
 5144SOL     OW25765   7.744   1.376   0.674
 5144SOL    HW125766   7.725   1.451   0.609
 5144SOL    HW225767   7.843   1.361   0.679
 5145SOL     OW25768   1.998   4.486   2.147
 5145SOL    HW125769   1.977   4.452   2.239
 5145SOL    HW225770   2.037   4.411   2.093
 5146SOL     OW25771   8.639   6.089   1.123
 5146SOL    HW125772   8.649   6.077   1.221
 5146SOL    HW225773   8.602   6.005   1.083
 5147SOL     OW25774   6.598   9.265   1.959
 5147SOL    HW125775   6.583   9.168   1.978
 5147SOL    HW225776   6.522   9.300   1.904
 5148SOL     OW25777   3.433   4.478   0.905
 5148SOL    HW125778   3.336   4.503   0.903
 5148SOL    HW225779   3.458   4.447   0.996
 5149SOL     OW25780   4.667   8.121   2.029
 5149SOL    HW125781   4.682   8.069   1.945
 5149SOL    HW225782   4.657   8.218   2.006
 5150SOL     OW25783   8.001   9.364   0.201
 5150SOL    HW125784   8.045   9.396   0.285
 5150SOL    HW225785   7.962   9.273   0.216
 5151SOL     OW25786   9.836   4.672   1.885
 5151SOL    HW125787   9.792   4.614   1.954
 5151SOL    HW225788   9.767   4.704   1.820
 5152SOL     OW25789   9.331   1.253   0.553
 5152SOL    HW125790   9.265   1.179   0.550
 5152SOL    HW225791   9.306   1.323   0.485
 5153SOL     OW25792   2.294   2.340   1.496
 5153SOL    HW125793   2.314   2.268   1.429
 5153SOL    HW225794   2.232   2.304   1.566
 5154SOL     OW25795   6.655   9.074   2.362
 5154SOL    HW125796   6.590   9.128   2.308
 5154SOL    HW225797   6.746   9.114   2.353
 5155SOL     OW25798   5.693   9.226   2.614
 5155SOL    HW125799   5.716   9.323   2.609
 5155SOL    HW225800   5.770   9.172   2.580
 5156SOL     OW25801   5.628   9.000   2.385
 5156SOL    HW125802   5.615   8.998   2.286
 5156SOL    HW225803   5.578   9.078   2.424
 5157SOL     OW25804   1.670   0.254   1.919
 5157SOL    HW125805   1.704   0.280   1.829
 5157SOL    HW225806   1.608   0.176   1.910
 5158SOL     OW25807   4.170   8.258   0.782
 5158SOL    HW125808   4.155   8.228   0.688
 5158SOL    HW225809   4.263   8.233   0.810
 5159SOL     OW25810   2.436   7.198   1.216
 5159SOL    HW125811   2.363   7.264   1.236
 5159SOL    HW225812   2.512   7.245   1.171
 5160SOL     OW25813   1.355   2.521   0.133
 5160SOL    HW125814   1.318   2.548   0.045
 5160SOL    HW225815   1.439   2.572   0.151
 5161SOL     OW25816   2.589   1.871   1.767
 5161SOL    HW125817   2.633   1.949   1.722
 5161SOL    HW225818   2.495   1.863   1.735
 5162SOL     OW25819   2.267   6.547   1.393
 5162SOL    HW125820   2.179   6.576   1.432
 5162SOL    HW225821   2.324   6.627   1.377
 5163SOL     OW25822   7.020   0.486   2.544
 5163SOL    HW125823   6.934   0.472   2.593
 5163SOL    HW225824   7.088   0.421   2.578
 5164SOL     OW25825   8.742   4.196   1.996
 5164SOL    HW125826   8.649   4.177   1.966
 5164SOL    HW225827   8.798   4.224   1.918
 5165SOL     OW25828   9.853   9.082   0.253
 5165SOL    HW125829   9.807   9.000   0.286
 5165SOL    HW225830   9.932   9.102   0.311
 5166SOL     OW25831   9.348   0.224   2.748
 5166SOL    HW125832   9.408   0.260   2.820
 5166SOL    HW225833   9.268   0.283   2.738
 5167SOL     OW25834   8.900   0.782   0.199
 5167SOL    HW125835   8.849   0.804   0.282
 5167SOL    HW225836   8.868   0.695   0.161
 5168SOL     OW25837   1.359   4.483   1.415
 5168SOL    HW125838   1.287   4.419   1.443
 5168SOL    HW225839   1.346   4.508   1.319
 5169SOL     OW25840   1.833   6.802   2.885
 5169SOL    HW125841   1.762   6.780   2.952
 5169SOL    HW225842   1.873   6.717   2.850
 5170SOL     OW25843   8.586   4.692   1.765
 5170SOL    HW125844   8.506   4.634   1.755
 5170SOL    HW225845   8.657   4.642   1.815
 5171SOL     OW25846   9.451   6.848   0.107
 5171SOL    HW125847   9.476   6.895   0.022
 5171SOL    HW225848   9.448   6.749   0.092
 5172SOL     OW25849   8.977   3.149   2.070
 5172SOL    HW125850   9.014   3.117   1.982
 5172SOL    HW225851   8.987   3.076   2.138
 5173SOL     OW25852   9.853   1.061   1.590
 5173SOL    HW125853   9.870   1.156   1.618
 5173SOL    HW225854   9.783   1.059   1.519
 5174SOL     OW25855   8.092   9.562   2.061
 5174SOL    HW125856   8.181   9.607   2.075
 5174SOL    HW225857   8.036   9.574   2.143
 5175SOL     OW25858   1.986   6.587   2.757
 5175SOL    HW125859   1.953   6.499   2.793
 5175SOL    HW225860   2.072   6.610   2.801
 5176SOL     OW25861   8.920   4.246   1.790
 5176SOL    HW125862   8.918   4.308   1.711
 5176SOL    HW225863   8.949   4.155   1.760
 5177SOL     OW25864   0.576   5.565   0.815
 5177SOL    HW125865   0.562   5.652   0.769
 5177SOL    HW225866   0.522   5.494   0.771
 5178SOL     OW25867   0.329   3.795   1.826
 5178SOL    HW125868   0.339   3.887   1.864
 5178SOL    HW225869   0.255   3.747   1.873
 5179SOL     OW25870   4.603   6.977   2.741
 5179SOL    HW125871   4.542   7.012   2.812
 5179SOL    HW225872   4.568   6.891   2.706
 5180SOL     OW25873   6.663   9.940   2.588
 5180SOL    HW125874   6.627   9.989   2.508
 5180SOL    HW225875   6.630   9.984   2.672
 5181SOL     OW25876   3.818   4.555   1.187
 5181SOL    HW125877   3.826   4.655   1.190
 5181SOL    HW225878   3.745   4.526   1.249
 5182SOL     OW25879   2.061   8.968   2.392
 5182SOL    HW125880   2.039   8.874   2.365
 5182SOL    HW225881   2.160   8.978   2.398
 5183SOL     OW25882   8.732   4.975   2.091
 5183SOL    HW125883   8.811   4.931   2.047
 5183SOL    HW225884   8.650   4.957   2.037
 5184SOL     OW25885   9.272   4.583   0.493
 5184SOL    HW125886   9.298   4.523   0.418
 5184SOL    HW225887   9.318   4.554   0.577
 5185SOL     OW25888   4.995   2.459   1.612
 5185SOL    HW125889   5.019   2.514   1.531
 5185SOL    HW225890   4.971   2.366   1.582
 5186SOL     OW25891   1.562   0.681   0.243
 5186SOL    HW125892   1.510   0.767   0.249
 5186SOL    HW225893   1.500   0.604   0.261
 5187SOL     OW25894   3.759   2.626   1.337
 5187SOL    HW125895   3.676   2.575   1.361
 5187SOL    HW225896   3.743   2.679   1.254
 5188SOL     OW25897   0.125   6.119   1.855
 5188SOL    HW125898   0.167   6.198   1.811
 5188SOL    HW225899   0.069   6.069   1.789
 5189SOL     OW25900   0.297   8.909   1.431
 5189SOL    HW125901   0.205   8.892   1.397
 5189SOL    HW225902   0.304   8.879   1.526
 5190SOL     OW25903   7.255   7.449   2.583
 5190SOL    HW125904   7.222   7.543   2.574
 5190SOL    HW225905   7.354   7.446   2.572
 5191SOL     OW25906   9.832   8.976   1.065
 5191SOL    HW125907   9.885   8.974   0.981
 5191SOL    HW225908   9.778   8.892   1.073
 5192SOL     OW25909   2.681   9.357   1.397
 5192SOL    HW125910   2.660   9.397   1.308
 5192SOL    HW225911   2.780   9.349   1.407
 5193SOL     OW25912   4.771   2.528   1.758
 5193SOL    HW125913   4.698   2.530   1.690
 5193SOL    HW225914   4.858   2.507   1.713
 5194SOL     OW25915   8.100   6.820   1.678
 5194SOL    HW125916   8.133   6.912   1.661
 5194SOL    HW225917   8.171   6.753   1.656
 5195SOL     OW25918   3.069   3.461   0.203
 5195SOL    HW125919   2.998   3.404   0.246
 5195SOL    HW225920   3.138   3.402   0.161
 5196SOL     OW25921   0.782   9.227   2.300
 5196SOL    HW125922   0.853   9.192   2.240
 5196SOL    HW225923   0.706   9.262   2.246
 5197SOL     OW25924   2.471   1.394   0.125
 5197SOL    HW125925   2.524   1.395   0.210
 5197SOL    HW225926   2.463   1.487   0.090
 5198SOL     OW25927   8.751   6.270   2.767
 5198SOL    HW125928   8.796   6.303   2.684
 5198SOL    HW225929   8.681   6.203   2.743
 5199SOL     OW25930   7.511   9.762   3.145
 5199SOL    HW125931   7.608   9.770   3.123
 5199SOL    HW225932   7.494   9.798   3.237
 5200SOL     OW25933   1.002   6.825   2.958
 5200SOL    HW125934   0.989   6.924   2.968
 5200SOL    HW225935   0.913   6.780   2.951
 5201SOL     OW25936   4.153   9.138   2.080
 5201SOL    HW125937   4.111   9.050   2.102
 5201SOL    HW225938   4.250   9.135   2.104
 5202SOL     OW25939   1.356   2.321   2.191
 5202SOL    HW125940   1.455   2.334   2.195
 5202SOL    HW225941   1.331   2.282   2.102
 5203SOL     OW25942   5.346   8.427   2.385
 5203SOL    HW125943   5.270   8.389   2.438
 5203SOL    HW225944   5.350   8.383   2.295
 5204SOL     OW25945   0.167   6.174   1.138
 5204SOL    HW125946   0.175   6.273   1.150
 5204SOL    HW225947   0.071   6.148   1.138
 5205SOL     OW25948   2.475   1.893   2.219
 5205SOL    HW125949   2.428   1.836   2.285
 5205SOL    HW225950   2.492   1.841   2.135
 5206SOL     OW25951   7.752   9.427   2.894
 5206SOL    HW125952   7.819   9.500   2.891
 5206SOL    HW225953   7.763   9.374   2.979
 5207SOL     OW25954   8.080   2.977   0.259
 5207SOL    HW125955   8.100   3.069   0.225
 5207SOL    HW225956   8.165   2.926   0.270
 5208SOL     OW25957   2.867   9.934   2.849
 5208SOL    HW125958   2.895   9.843   2.816
 5208SOL    HW225959   2.768   9.942   2.844
 5209SOL     OW25960   4.519   2.730   2.443
 5209SOL    HW125961   4.466   2.647   2.462
 5209SOL    HW225962   4.596   2.707   2.384
 5210SOL     OW25963   0.685   0.250   2.579
 5210SOL    HW125964   0.687   0.150   2.572
 5210SOL    HW225965   0.596   0.283   2.550
 5211SOL     OW25966   9.538   0.927   0.607
 5211SOL    HW125967   9.631   0.961   0.590
 5211SOL    HW225968   9.484   0.935   0.523
 5212SOL     OW25969   8.050   2.508   2.100
 5212SOL    HW125970   8.031   2.577   2.170
 5212SOL    HW225971   8.143   2.472   2.113
 5213SOL     OW25972   1.529   3.066   0.698
 5213SOL    HW125973   1.568   3.039   0.785
 5213SOL    HW225974   1.473   3.148   0.710
 5214SOL     OW25975   3.181   6.558   1.011
 5214SOL    HW125976   3.172   6.510   0.924
 5214SOL    HW225977   3.164   6.493   1.086
 5215SOL     OW25978   1.868   7.880   1.048
 5215SOL    HW125979   1.798   7.808   1.039
 5215SOL    HW225980   1.894   7.889   1.144
 5216SOL     OW25981   9.780   2.756   1.051
 5216SOL    HW125982   9.846   2.711   1.111
 5216SOL    HW225983   9.688   2.739   1.084
 5217SOL     OW25984   4.379   3.043   2.157
 5217SOL    HW125985   4.428   3.129   2.144
 5217SOL    HW225986   4.443   2.967   2.155
 5218SOL     OW25987   4.304   0.486   1.874
 5218SOL    HW125988   4.331   0.432   1.794
 5218SOL    HW225989   4.233   0.552   1.848
 5219SOL     OW25990   9.776   4.723   3.019
 5219SOL    HW125991   9.750   4.694   2.927
 5219SOL    HW225992   9.834   4.805   3.013
 5220SOL     OW25993   3.108   8.957   0.060
 5220SOL    HW125994   3.032   9.014   0.031
 5220SOL    HW225995   3.144   8.906   4.023
 5221SOL     OW25996   2.950   7.514   0.125
 5221SOL    HW125997   2.923   7.477   0.214
 5221SOL    HW225998   3.034   7.469   0.094
 5222SOL     OW25999   3.218   4.465   1.546
 5222SOL    HW126000   3.124   4.478   1.578
 5222SOL    HW226001   3.248   4.373   1.570
 5223SOL     OW26002   9.683   7.060   2.656
 5223SOL    HW126003   9.630   7.010   2.587
 5223SOL    HW226004   9.692   7.004   2.738
 5224SOL     OW26005   9.371   8.952   1.439
 5224SOL    HW126006   9.411   8.922   1.352
 5224SOL    HW226007   9.357   9.051   1.436
 5225SOL     OW26008   0.159   5.735   2.087
 5225SOL    HW126009   0.206   5.797   2.025
 5225SOL    HW226010   0.225   5.694   2.150
 5226SOL     OW26011   2.912   4.392   1.133
 5226SOL    HW126012   2.914   4.382   1.034
 5226SOL    HW226013   2.990   4.447   1.163
 5227SOL     OW26014   1.781   2.840   0.614
 5227SOL    HW126015   1.877   2.864   0.627
 5227SOL    HW226016   1.737   2.906   0.554
 5228SOL     OW26017   8.798   9.280   0.904
 5228SOL    HW126018   8.707   9.259   0.940
 5228SOL    HW226019   8.826   9.207   0.840
 5229SOL     OW26020   4.586   2.450   2.757
 5229SOL    HW126021   4.513   2.460   2.690
 5229SOL    HW226022   4.658   2.390   2.719
 5230SOL     OW26023   3.948   3.546   1.825
 5230SOL    HW126024   3.977   3.450   1.835
 5230SOL    HW226025   3.999   3.603   1.889
 5231SOL     OW26026   1.263   3.017   0.906
 5231SOL    HW126027   1.224   3.109   0.911
 5231SOL    HW226028   1.215   2.965   0.835
 5232SOL     OW26029   2.951   2.866   3.058
 5232SOL    HW126030   2.870   2.925   3.068
 5232SOL    HW226031   2.922   2.770   3.059
 5233SOL     OW26032   6.433   7.375   2.964
 5233SOL    HW126033   6.337   7.351   2.979
 5233SOL    HW226034   6.485   7.359   3.048
 5234SOL     OW26035   9.078   5.694   2.471
 5234SOL    HW126036   9.073   5.750   2.389
 5234SOL    HW226037   9.137   5.738   2.539
 5235SOL     OW26038   8.426   9.138   2.611
 5235SOL    HW126039   8.442   9.109   2.517
 5235SOL    HW226040   8.448   9.235   2.620
 5236SOL     OW26041   1.319   8.369   0.913
 5236SOL    HW126042   1.344   8.279   0.877
 5236SOL    HW226043   1.235   8.362   0.967
 5237SOL     OW26044   2.190   3.330   0.507
 5237SOL    HW126045   2.259   3.382   0.456
 5237SOL    HW226046   2.167   3.247   0.456
 5238SOL     OW26047   0.563   1.001   0.702
 5238SOL    HW126048   0.613   0.970   0.621
 5238SOL    HW226049   0.518   0.923   0.746
 5239SOL     OW26050   4.337   2.473   1.222
 5239SOL    HW126051   4.351   2.571   1.237
 5239SOL    HW226052   4.308   2.457   1.128
 5240SOL     OW26053   8.110   2.217   2.225
 5240SOL    HW126054   8.203   2.241   2.252
 5240SOL    HW226055   8.112   2.163   2.142
 5241SOL     OW26056   0.038   2.638   0.752
 5241SOL    HW126057   9.991   2.616   0.666
 5241SOL    HW226058   0.009   2.573   0.823
 5242SOL     OW26059   1.680   4.113   0.186
 5242SOL    HW126060   1.728   4.162   0.259
 5242SOL    HW226061   1.722   4.136   0.098
 5243SOL     OW26062   7.249   2.480   0.747
 5243SOL    HW126063   7.154   2.463   0.719
 5243SOL    HW226064   7.290   2.548   0.686
 5244SOL     OW26065   0.625   2.660   2.080
 5244SOL    HW126066   0.677   2.667   1.995
 5244SOL    HW226067   0.547   2.599   2.067
 5245SOL     OW26068   8.012   8.573   1.788
 5245SOL    HW126069   7.977   8.638   1.720
 5245SOL    HW226070   8.102   8.540   1.758
 5246SOL     OW26071   8.982   8.878   2.186
 5246SOL    HW126072   8.922   8.803   2.213
 5246SOL    HW226073   9.078   8.849   2.192
 5247SOL     OW26074   1.490   2.527   0.924
 5247SOL    HW126075   1.556   2.516   0.999
 5247SOL    HW226076   1.536   2.565   0.844
 5248SOL     OW26077   2.612   6.945   0.877
 5248SOL    HW126078   2.655   6.857   0.858
 5248SOL    HW226079   2.647   6.981   0.964
 5249SOL     OW26080   0.958   2.421   1.617
 5249SOL    HW126081   0.901   2.400   1.696
 5249SOL    HW226082   0.935   2.511   1.582
 5250SOL     OW26083   9.465   2.222   0.547
 5250SOL    HW126084   9.379   2.203   0.594
 5250SOL    HW226085   9.447   2.276   0.465
 5251SOL     OW26086   1.858   7.629   2.873
 5251SOL    HW126087   1.784   7.580   2.918
 5251SOL    HW226088   1.886   7.707   2.929
 5252SOL     OW26089   3.516   7.150   0.044
 5252SOL    HW126090   3.470   7.062   0.036
 5252SOL    HW226091   3.485   7.210   4.011
 5253SOL     OW26092   6.759   9.483   1.602
 5253SOL    HW126093   6.797   9.441   1.519
 5253SOL    HW226094   6.725   9.574   1.580
 5254SOL     OW26095   0.880   3.348   2.577
 5254SOL    HW126096   0.850   3.443   2.577
 5254SOL    HW226097   0.848   3.303   2.493
 5255SOL     OW26098   6.612   9.560   2.350
 5255SOL    HW126099   6.700   9.594   2.320
 5255SOL    HW226100   6.621   9.516   2.440
 5256SOL     OW26101   6.566   9.328   1.455
 5256SOL    HW126102   6.581   9.372   1.544
 5256SOL    HW226103   6.653   9.322   1.406
 5257SOL     OW26104   9.837   8.418   2.930
 5257SOL    HW126105   9.843   8.345   2.997
 5257SOL    HW226106   9.741   8.435   2.907
 5258SOL     OW26107   1.601   5.259   0.429
 5258SOL    HW126108   1.576   5.294   0.339
 5258SOL    HW226109   1.520   5.257   0.488
 5259SOL     OW26110   1.356   6.751   2.408
 5259SOL    HW126111   1.395   6.739   2.317
 5259SOL    HW226112   1.430   6.752   2.475
 5260SOL     OW26113   3.300   1.200   2.884
 5260SOL    HW126114   3.383   1.150   2.860
 5260SOL    HW226115   3.235   1.195   2.808
 5261SOL     OW26116   9.543   2.395   1.515
 5261SOL    HW126117   9.574   2.487   1.493
 5261SOL    HW226118   9.616   2.346   1.564
 5262SOL     OW26119   5.268   8.403   2.747
 5262SOL    HW126120   5.211   8.425   2.826
 5262SOL    HW226121   5.324   8.482   2.723
 5263SOL     OW26122   7.109   0.731   2.630
 5263SOL    HW126123   7.054   0.747   2.712
 5263SOL    HW226124   7.075   0.650   2.583
 5264SOL     OW26125   2.897   7.814   0.619
 5264SOL    HW126126   2.851   7.892   0.661
 5264SOL    HW226127   2.841   7.732   0.630
 5265SOL     OW26128   0.913   2.110   1.849
 5265SOL    HW126129   0.863   2.197   1.845
 5265SOL    HW226130   0.849   2.036   1.868
 5266SOL     OW26131   1.717   5.414   0.957
 5266SOL    HW126132   1.797   5.365   0.921
 5266SOL    HW226133   1.637   5.392   0.902
 5267SOL     OW26134   3.848   2.109   0.682
 5267SOL    HW126135   3.822   2.136   0.589
 5267SOL    HW226136   3.777   2.138   0.746
 5268SOL     OW26137   1.137   6.763   0.842
 5268SOL    HW126138   1.196   6.834   0.879
 5268SOL    HW226139   1.159   6.748   0.745
 5269SOL     OW26140   1.263   5.857   3.160
 5269SOL    HW126141   1.179   5.908   3.141
 5269SOL    HW226142   1.273   5.845   3.259
 5270SOL     OW26143   4.042   3.611   3.017
 5270SOL    HW126144   4.119   3.551   2.997
 5270SOL    HW226145   3.956   3.561   3.009
 5271SOL     OW26146   9.868   0.872   1.800
 5271SOL    HW126147   9.959   0.857   1.840
 5271SOL    HW226148   9.874   0.939   1.727
 5272SOL     OW26149   7.056   9.167   3.072
 5272SOL    HW126150   7.120   9.239   3.099
 5272SOL    HW226151   7.106   9.081   3.063
 5273SOL     OW26152   9.161   9.041   3.099
 5273SOL    HW126153   9.165   9.122   3.158
 5273SOL    HW226154   9.133   9.067   3.007
 5274SOL     OW26155   3.609   0.242   3.174
 5274SOL    HW126156   3.647   0.255   3.083
 5274SOL    HW226157   3.529   0.182   3.169
 5275SOL     OW26158   0.681   4.520   0.318
 5275SOL    HW126159   0.652   4.527   0.413
 5275SOL    HW226160   0.757   4.582   0.301
 5276SOL     OW26161   0.334   8.590   0.310
 5276SOL    HW126162   0.410   8.543   0.354
 5276SOL    HW226163   0.283   8.526   0.252
 5277SOL     OW26164   2.180   6.127   2.727
 5277SOL    HW126165   2.198   6.105   2.632
 5277SOL    HW226166   2.202   6.223   2.745
 5278SOL     OW26167   7.887   7.733   2.283
 5278SOL    HW126168   7.976   7.767   2.252
 5278SOL    HW226169   7.897   7.690   2.373
 5279SOL     OW26170   9.695   9.770   1.471
 5279SOL    HW126171   9.614   9.752   1.416
 5279SOL    HW226172   9.770   9.797   1.411
 5280SOL     OW26173   2.892   9.974   2.390
 5280SOL    HW126174   2.933   0.047   2.444
 5280SOL    HW226175   2.964   9.925   2.341
 5281SOL     OW26176   0.824   0.705   0.946
 5281SOL    HW126177   0.758   0.630   0.951
 5281SOL    HW226178   0.835   0.733   0.850
 5282SOL     OW26179   1.676   3.335   2.592
 5282SOL    HW126180   1.693   3.301   2.684
 5282SOL    HW226181   1.759   3.324   2.536
 5283SOL     OW26182   3.570   1.902   1.856
 5283SOL    HW126183   3.632   1.980   1.845
 5283SOL    HW226184   3.535   1.875   1.767
 5284SOL     OW26185   0.863   8.163   2.332
 5284SOL    HW126186   0.954   8.142   2.295
 5284SOL    HW226187   0.845   8.261   2.322
 5285SOL     OW26188   8.478   7.970   2.963
 5285SOL    HW126189   8.539   7.897   2.995
 5285SOL    HW226190   8.419   7.935   2.891
 5286SOL     OW26191   1.586   0.737   0.669
 5286SOL    HW126192   1.501   0.788   0.655
 5286SOL    HW226193   1.565   0.640   0.681
 5287SOL     OW26194   9.306   8.191   0.458
 5287SOL    HW126195   9.276   8.116   0.517
 5287SOL    HW226196   9.321   8.156   0.365
 5288SOL     OW26197   3.909   1.483   1.949
 5288SOL    HW126198   3.856   1.567   1.962
 5288SOL    HW226199   3.884   1.441   1.862
 5289SOL     OW26200   1.509   2.423   1.901
 5289SOL    HW126201   1.490   2.520   1.919
 5289SOL    HW226202   1.562   2.385   1.976
 5290SOL     OW26203   2.781   4.622   2.317
 5290SOL    HW126204   2.757   4.525   2.320
 5290SOL    HW226205   2.773   4.656   2.223
 5291SOL     OW26206   1.206   9.791   1.259
 5291SOL    HW126207   1.266   9.809   1.338
 5291SOL    HW226208   1.121   9.842   1.270
 5292SOL     OW26209   9.124   1.281   2.381
 5292SOL    HW126210   9.082   1.372   2.381
 5292SOL    HW226211   9.193   1.276   2.453
 5293SOL     OW26212   7.714   8.086   2.821
 5293SOL    HW126213   7.721   7.993   2.785
 5293SOL    HW226214   7.737   8.086   2.918
 5294SOL     OW26215   1.018   0.073   1.059
 5294SOL    HW126216   1.080   0.078   0.981
 5294SOL    HW226217   0.923   0.081   1.027
 5295SOL     OW26218   8.803   3.387   1.765
 5295SOL    HW126219   8.857   3.304   1.757
 5295SOL    HW226220   8.843   3.459   1.709
 5296SOL     OW26221   3.508   6.463   2.683
 5296SOL    HW126222   3.448   6.476   2.762
 5296SOL    HW226223   3.456   6.472   2.599
 5297SOL     OW26224   1.724   4.679   2.992
 5297SOL    HW126225   1.730   4.580   2.983
 5297SOL    HW226226   1.637   4.710   2.954
 5298SOL     OW26227   7.808   8.863   2.432
 5298SOL    HW126228   7.866   8.943   2.420
 5298SOL    HW226229   7.732   8.867   2.367
 5299SOL     OW26230   0.851   3.029   0.695
 5299SOL    HW126231   0.757   3.046   0.724
 5299SOL    HW226232   0.861   3.049   0.597
 5300SOL     OW26233   0.398   8.227   1.521
 5300SOL    HW126234   0.489   8.185   1.519
 5300SOL    HW226235   0.330   8.161   1.489
 5301SOL     OW26236   1.751   6.132   2.703
 5301SOL    HW126237   1.676   6.132   2.769
 5301SOL    HW226238   1.781   6.038   2.688
 5302SOL     OW26239   8.396   8.985   2.929
 5302SOL    HW126240   8.339   9.067   2.939
 5302SOL    HW226241   8.476   9.007   2.873
 5303SOL     OW26242   3.729   0.472   2.302
 5303SOL    HW126243   3.808   0.436   2.352
 5303SOL    HW226244   3.755   0.489   2.207
 5304SOL     OW26245   3.463   9.277   0.868
 5304SOL    HW126246   3.415   9.364   0.858
 5304SOL    HW226247   3.440   9.236   0.956
 5305SOL     OW26248   9.778   9.977   1.904
 5305SOL    HW126249   9.827   0.063   1.919
 5305SOL    HW226250   9.741   9.976   1.811
 5306SOL     OW26251   4.425   2.838   0.523
 5306SOL    HW126252   4.425   2.849   0.623
 5306SOL    HW226253   4.378   2.915   0.481
 5307SOL     OW26254   2.805   7.839   0.357
 5307SOL    HW126255   2.751   7.756   0.342
 5307SOL    HW226256   2.852   7.833   0.446
 5308SOL     OW26257   1.442   4.854   0.848
 5308SOL    HW126258   1.375   4.833   0.920
 5308SOL    HW226259   1.508   4.921   0.881
 5309SOL     OW26260   9.389   1.465   0.733
 5309SOL    HW126261   9.482   1.481   0.701
 5309SOL    HW226262   9.352   1.383   0.689
 5310SOL     OW26263   3.367   5.132   0.149
 5310SOL    HW126264   3.395   5.105   0.057
 5310SOL    HW226265   3.426   5.087   0.216
 5311SOL     OW26266   8.377   0.412   1.945
 5311SOL    HW126267   8.339   0.341   1.886
 5311SOL    HW226268   8.392   0.495   1.892
 5312SOL     OW26269   0.791   1.058   2.487
 5312SOL    HW126270   0.846   0.975   2.474
 5312SOL    HW226271   0.823   1.106   2.569
 5313SOL     OW26272   9.783   1.044   0.567
 5313SOL    HW126273   9.821   1.033   0.659
 5313SOL    HW226274   9.856   1.034   0.499
 5314SOL     OW26275   1.175   8.806   1.181
 5314SOL    HW126276   1.145   8.711   1.196
 5314SOL    HW226277   1.272   8.815   1.205
 5315SOL     OW26278   1.958   2.877   1.377
 5315SOL    HW126279   1.953   2.818   1.457
 5315SOL    HW226280   1.952   2.973   1.406
 5316SOL     OW26281   0.463   7.902   1.628
 5316SOL    HW126282   0.520   7.980   1.603
 5316SOL    HW226283   0.440   7.850   1.546
 5317SOL     OW26284   1.067   6.426   1.131
 5317SOL    HW126285   1.126   6.499   1.095
 5317SOL    HW226286   1.119   6.369   1.194
 5318SOL     OW26287   1.830   5.669   0.936
 5318SOL    HW126288   1.775   5.586   0.943
 5318SOL    HW226289   1.905   5.665   1.002
 5319SOL     OW26290   0.914   2.430   2.678
 5319SOL    HW126291   0.896   2.445   2.775
 5319SOL    HW226292   1.013   2.420   2.664
 5320SOL     OW26293   0.280   3.265   2.223
 5320SOL    HW126294   0.274   3.168   2.196
 5320SOL    HW226295   0.368   3.302   2.192
 5321SOL     OW26296   9.339   5.305   0.062
 5321SOL    HW126297   9.381   5.329   4.015
 5321SOL    HW226298   9.239   5.315   0.055
 5322SOL     OW26299   8.833   2.860   2.616
 5322SOL    HW126300   8.775   2.845   2.535
 5322SOL    HW226301   8.927   2.875   2.587
 5323SOL     OW26302   4.840   1.810   2.103
 5323SOL    HW126303   4.857   1.758   2.020
 5323SOL    HW226304   4.836   1.908   2.081
 5324SOL     OW26305   0.495   2.835   2.243
 5324SOL    HW126306   0.540   2.778   2.176
 5324SOL    HW226307   0.471   2.781   2.324
 5325SOL     OW26308   3.955   8.603   3.018
 5325SOL    HW126309   4.047   8.600   3.059
 5325SOL    HW226310   3.914   8.692   3.036
 5326SOL     OW26311   8.429   4.752   2.494
 5326SOL    HW126312   8.400   4.687   2.565
 5326SOL    HW226313   8.516   4.792   2.520
 5327SOL     OW26314   2.871   0.950   2.488
 5327SOL    HW126315   2.772   0.954   2.472
 5327SOL    HW226316   2.891   0.970   2.584
 5328SOL     OW26317   3.796   7.740   1.418
 5328SOL    HW126318   3.734   7.661   1.414
 5328SOL    HW226319   3.743   7.824   1.404
 5329SOL     OW26320   0.034   2.926   3.025
 5329SOL    HW126321   0.113   2.975   2.989
 5329SOL    HW226322   0.053   2.828   3.024
 5330SOL     OW26323   1.568   8.493   0.992
 5330SOL    HW126324   1.474   8.459   0.979
 5330SOL    HW226325   1.604   8.458   1.078
 5331SOL     OW26326   9.827   9.024   2.818
 5331SOL    HW126327   9.753   8.966   2.854
 5331SOL    HW226328   9.834   9.010   2.719
 5332SOL     OW26329   2.852   6.295   1.607
 5332SOL    HW126330   2.863   6.394   1.610
 5332SOL    HW226331   2.766   6.269   1.650
 5333SOL     OW26332   8.129   7.031   0.169
 5333SOL    HW126333   8.176   7.045   0.256
 5333SOL    HW226334   8.107   7.120   0.128
 5334SOL     OW26335   1.902   9.849   2.857
 5334SOL    HW126336   1.953   9.928   2.824
 5334SOL    HW226337   1.813   9.879   2.891
 5335SOL     OW26338   8.424   3.952   2.201
 5335SOL    HW126339   8.417   3.873   2.263
 5335SOL    HW226340   8.400   3.925   2.108
 5336SOL     OW26341   1.557   4.681   0.225
 5336SOL    HW126342   1.526   4.588   0.245
 5336SOL    HW226343   1.571   4.691   0.127
 5337SOL     OW26344   9.456   9.409   0.675
 5337SOL    HW126345   9.483   9.505   0.665
 5337SOL    HW226346   9.441   9.389   0.772
 5338SOL     OW26347   2.040   2.943   0.620
 5338SOL    HW126348   2.007   3.034   0.594
 5338SOL    HW226349   2.063   2.891   0.537
 5339SOL     OW26350   4.615   0.908   0.713
 5339SOL    HW126351   4.631   0.848   0.635
 5339SOL    HW226352   4.540   0.971   0.692
 5340SOL     OW26353   9.235   2.315   2.396
 5340SOL    HW126354   9.287   2.369   2.462
 5340SOL    HW226355   9.143   2.354   2.385
 5341SOL     OW26356   9.027   3.733   1.804
 5341SOL    HW126357   8.983   3.678   1.733
 5341SOL    HW226358   9.023   3.684   1.891
 5342SOL     OW26359   4.244   8.405   2.913
 5342SOL    HW126360   4.286   8.360   2.834
 5342SOL    HW226361   4.151   8.368   2.926
 5343SOL     OW26362   0.928   7.306   2.178
 5343SOL    HW126363   0.872   7.360   2.241
 5343SOL    HW226364   1.017   7.351   2.167
 5344SOL     OW26365   7.862   8.333   1.806
 5344SOL    HW126366   7.916   8.418   1.803
 5344SOL    HW226367   7.795   8.339   1.879
 5345SOL     OW26368   1.194   2.745   2.391
 5345SOL    HW126369   1.200   2.646   2.381
 5345SOL    HW226370   1.122   2.780   2.331
 5346SOL     OW26371   8.431   0.321   3.094
 5346SOL    HW126372   8.525   0.286   3.105
 5346SOL    HW226373   8.370   0.270   3.154
 5347SOL     OW26374   1.310   6.470   0.218
 5347SOL    HW126375   1.329   6.392   0.277
 5347SOL    HW226376   1.396   6.513   0.191
 5348SOL     OW26377   1.836   2.477   1.663
 5348SOL    HW126378   1.861   2.421   1.743
 5348SOL    HW226379   1.736   2.481   1.655
 5349SOL     OW26380   1.581   4.622   2.196
 5349SOL    HW126381   1.495   4.626   2.247
 5349SOL    HW226382   1.630   4.538   2.222
 5350SOL     OW26383   1.692   1.393   1.470
 5350SOL    HW126384   1.787   1.407   1.442
 5350SOL    HW226385   1.631   1.423   1.397
 5351SOL     OW26386   1.858   4.542   1.503
 5351SOL    HW126387   1.776   4.485   1.508
 5351SOL    HW226388   1.939   4.484   1.494
 5352SOL     OW26389   9.070   5.593   1.760
 5352SOL    HW126390   9.081   5.692   1.772
 5352SOL    HW226391   9.115   5.565   1.675
 5353SOL     OW26392   3.739   2.848   1.496
 5353SOL    HW126393   3.748   2.761   1.447
 5353SOL    HW226394   3.711   2.920   1.432
 5354SOL     OW26395   7.774   9.358   1.838
 5354SOL    HW126396   7.838   9.306   1.895
 5354SOL    HW226397   7.798   9.456   1.841
 5355SOL     OW26398   9.826   6.000   2.827
 5355SOL    HW126399   9.737   6.012   2.783
 5355SOL    HW226400   9.891   5.962   2.761
 5356SOL     OW26401   8.740   2.971   1.328
 5356SOL    HW126402   8.715   2.958   1.232
 5356SOL    HW226403   8.666   2.939   1.387
 5357SOL     OW26404   9.174   8.996   2.413
 5357SOL    HW126405   9.200   8.944   2.332
 5357SOL    HW226406   9.242   8.981   2.486
 5358SOL     OW26407   3.894   0.576   2.080
 5358SOL    HW126408   3.912   0.622   2.166
 5358SOL    HW226409   3.837   0.634   2.022
 5359SOL     OW26410   4.347   8.320   2.678
 5359SOL    HW126411   4.444   8.315   2.657
 5359SOL    HW226412   4.297   8.253   2.622
 5360SOL     OW26413   8.624   8.303   0.329
 5360SOL    HW126414   8.665   8.370   0.266
 5360SOL    HW226415   8.615   8.215   0.282
 5361SOL     OW26416   0.867   0.286   1.795
 5361SOL    HW126417   0.853   0.383   1.772
 5361SOL    HW226418   0.958   0.273   1.832
 5362SOL     OW26419   4.268   0.678   0.810
 5362SOL    HW126420   4.173   0.651   0.823
 5362SOL    HW226421   4.328   0.613   0.857
 5363SOL     OW26422   8.800   5.650   1.802
 5363SOL    HW126423   8.885   5.610   1.770
 5363SOL    HW226424   8.819   5.717   1.875
 5364SOL     OW26425   0.679   3.264   0.066
 5364SOL    HW126426   0.595   3.212   0.057
 5364SOL    HW226427   0.758   3.203   0.052
 5365SOL     OW26428   2.139   9.527   1.220
 5365SOL    HW126429   2.058   9.491   1.173
 5365SOL    HW226430   2.192   9.584   1.156
 5366SOL     OW26431   1.909   7.664   1.252
 5366SOL    HW126432   1.832   7.657   1.188
 5366SOL    HW226433   1.887   7.613   1.336
 5367SOL     OW26434   3.891   3.356   2.895
 5367SOL    HW126435   3.965   3.308   2.942
 5367SOL    HW226436   3.821   3.291   2.866
 5368SOL     OW26437   1.919   8.856   1.657
 5368SOL    HW126438   2.015   8.826   1.653
 5368SOL    HW226439   1.859   8.777   1.647
 5369SOL     OW26440   2.118   6.944   1.903
 5369SOL    HW126441   2.174   6.879   1.953
 5369SOL    HW226442   2.122   7.033   1.948
 5370SOL     OW26443   2.459   0.939   0.294
 5370SOL    HW126444   2.448   1.010   0.224
 5370SOL    HW226445   2.369   0.915   0.331
 5371SOL     OW26446   5.155   7.461   2.663
 5371SOL    HW126447   5.165   7.372   2.617
 5371SOL    HW226448   5.062   7.471   2.697
 5372SOL     OW26449   9.009   8.582   0.954
 5372SOL    HW126450   9.090   8.564   0.898
 5372SOL    HW226451   8.940   8.627   0.898
 5373SOL     OW26452   1.960   7.197   0.965
 5373SOL    HW126453   1.925   7.289   0.980
 5373SOL    HW226454   1.921   7.135   1.034
 5374SOL     OW26455   7.784   8.009   1.483
 5374SOL    HW126456   7.798   8.016   1.384
 5374SOL    HW226457   7.855   7.952   1.523
 5375SOL     OW26458   9.167   3.536   1.211
 5375SOL    HW126459   9.158   3.615   1.152
 5375SOL    HW226460   9.257   3.536   1.255
 5376SOL     OW26461   1.924   6.256   0.099
 5376SOL    HW126462   1.915   6.219   0.007
 5376SOL    HW226463   1.868   6.203   0.163
 5377SOL     OW26464   5.003   0.571   2.014
 5377SOL    HW126465   4.977   0.661   2.048
 5377SOL    HW226466   5.043   0.579   1.923
 5378SOL     OW26467   8.161   2.930   0.644
 5378SOL    HW126468   8.096   2.981   0.586
 5378SOL    HW226469   8.254   2.955   0.618
 5379SOL     OW26470   9.327   0.190   1.086
 5379SOL    HW126471   9.348   0.134   1.006
 5379SOL    HW226472   9.351   0.285   1.066
 5380SOL     OW26473   3.184   2.791   0.746
 5380SOL    HW126474   3.273   2.772   0.704
 5380SOL    HW226475   3.155   2.713   0.801
 5381SOL     OW26476   8.521   5.409   2.224
 5381SOL    HW126477   8.478   5.423   2.135
 5381SOL    HW226478   8.455   5.428   2.297
 5382SOL     OW26479   5.196   7.220   2.541
 5382SOL    HW126480   5.139   7.207   2.460
 5382SOL    HW226481   5.288   7.186   2.523
 5383SOL     OW26482   8.139   2.905   1.943
 5383SOL    HW126483   8.094   2.959   2.013
 5383SOL    HW226484   8.124   2.946   1.853
 5384SOL     OW26485   3.796   1.236   0.921
 5384SOL    HW126486   3.780   1.149   0.967
 5384SOL    HW226487   3.748   1.236   0.833
 5385SOL     OW26488   9.991   5.253   2.458
 5385SOL    HW126489   0.023   5.320   2.390
 5385SOL    HW226490   9.967   5.168   2.411
 5386SOL     OW26491   1.965   7.502   0.559
 5386SOL    HW126492   1.952   7.417   0.611
 5386SOL    HW226493   2.041   7.491   0.496
 5387SOL     OW26494   0.563   0.949   2.748
 5387SOL    HW126495   0.656   0.915   2.732
 5387SOL    HW226496   0.544   0.948   2.846
 5388SOL     OW26497   2.519   2.983   0.800
 5388SOL    HW126498   2.419   2.988   0.796
 5388SOL    HW226499   2.557   3.000   0.709
 5389SOL     OW26500   8.338   1.723   3.094
 5389SOL    HW126501   8.309   1.724   2.998
 5389SOL    HW226502   8.432   1.757   3.101
 5390SOL     OW26503   8.569   2.458   1.726
 5390SOL    HW126504   8.489   2.401   1.710
 5390SOL    HW226505   8.646   2.423   1.673
 5391SOL     OW26506   9.652   0.998   2.880
 5391SOL    HW126507   9.689   1.089   2.859
 5391SOL    HW226508   9.719   0.947   2.934
 5392SOL     OW26509   3.105   7.132   0.040
 5392SOL    HW126510   3.173   7.075   0.085
 5392SOL    HW226511   3.027   7.146   0.101
 5393SOL     OW26512   4.262   7.927   2.911
 5393SOL    HW126513   4.295   7.949   2.819
 5393SOL    HW226514   4.177   7.976   2.928
 5394SOL     OW26515   1.241   1.751   2.955
 5394SOL    HW126516   1.153   1.703   2.953
 5394SOL    HW226517   1.315   1.684   2.954
 5395SOL     OW26518   2.254   9.056   1.777
 5395SOL    HW126519   2.344   9.024   1.805
 5395SOL    HW226520   2.204   8.983   1.732
 5396SOL     OW26521   4.067   9.467   0.849
 5396SOL    HW126522   4.041   9.419   0.933
 5396SOL    HW226523   4.144   9.527   0.867
 5397SOL     OW26524   2.999   3.328   2.057
 5397SOL    HW126525   3.073   3.360   1.999
 5397SOL    HW226526   2.912   3.339   2.009
 5398SOL     OW26527   9.496   5.788   3.022
 5398SOL    HW126528   9.581   5.823   3.060
 5398SOL    HW226529   9.516   5.725   2.948
 5399SOL     OW26530   2.978   3.230   1.301
 5399SOL    HW126531   2.883   3.240   1.331
 5399SOL    HW226532   2.980   3.191   1.209
 5400SOL     OW26533   9.416   1.360   1.861
 5400SOL    HW126534   9.425   1.458   1.846
 5400SOL    HW226535   9.392   1.343   1.956
 5401SOL     OW26536   3.374   2.883   2.164
 5401SOL    HW126537   3.422   2.795   2.158
 5401SOL    HW226538   3.276   2.868   2.156
 5402SOL     OW26539   1.065   7.319   0.658
 5402SOL    HW126540   1.012   7.261   0.597
 5402SOL    HW226541   1.009   7.342   0.738
 5403SOL     OW26542   0.466   8.293   2.086
 5403SOL    HW126543   0.557   8.327   2.061
 5403SOL    HW226544   0.460   8.196   2.065
 5404SOL     OW26545   7.617   9.685   0.312
 5404SOL    HW126546   7.563   9.658   0.232
 5404SOL    HW226547   7.714   9.666   0.295
 5405SOL     OW26548   9.844   7.647   0.854
 5405SOL    HW126549   9.827   7.735   0.809
 5405SOL    HW226550   9.840   7.574   0.786
 5406SOL     OW26551   0.232   0.515   1.329
 5406SOL    HW126552   0.161   0.544   1.264
 5406SOL    HW226553   0.235   0.581   1.404
 5407SOL     OW26554   8.598   0.842   3.092
 5407SOL    HW126555   8.534   0.906   3.134
 5407SOL    HW226556   8.548   0.780   3.031
 5408SOL     OW26557   9.996   5.320   1.962
 5408SOL    HW126558   0.062   5.266   1.910
 5408SOL    HW226559   9.914   5.265   1.979
 5409SOL     OW26560   0.416   9.601   2.725
 5409SOL    HW126561   0.397   9.505   2.745
 5409SOL    HW226562   0.387   9.657   2.803
 5410SOL     OW26563   1.551   7.439   0.113
 5410SOL    HW126564   1.574   7.490   0.030
 5410SOL    HW226565   1.480   7.487   0.163
 5411SOL     OW26566   3.719   3.575   2.877
 5411SOL    HW126567   3.627   3.544   2.901
 5411SOL    HW226568   3.782   3.498   2.879
 5412SOL     OW26569   2.055   5.123   2.809
 5412SOL    HW126570   2.039   5.033   2.769
 5412SOL    HW226571   2.151   5.149   2.798
 5413SOL     OW26572   1.994   9.246   2.965
 5413SOL    HW126573   2.077   9.277   2.918
 5413SOL    HW226574   2.003   9.262   3.063
 5414SOL     OW26575   5.897   9.347   3.036
 5414SOL    HW126576   5.807   9.390   3.044
 5414SOL    HW226577   5.890   9.249   3.055
 5415SOL     OW26578   4.194   7.053   3.068
 5415SOL    HW126579   4.175   6.963   3.108
 5415SOL    HW226580   4.107   7.097   3.044
 5416SOL     OW26581   9.613   6.430   1.952
 5416SOL    HW126582   9.636   6.417   1.856
 5416SOL    HW226583   9.697   6.425   2.007
 5417SOL     OW26584   8.093   3.550   0.890
 5417SOL    HW126585   8.000   3.514   0.887
 5417SOL    HW226586   8.092   3.648   0.872
 5418SOL     OW26587   0.889   1.202   2.717
 5418SOL    HW126588   0.835   1.201   2.801
 5418SOL    HW226589   0.857   1.276   2.658
 5419SOL     OW26590   8.864   7.035   2.862
 5419SOL    HW126591   8.950   7.072   2.826
 5419SOL    HW226592   8.855   6.940   2.833
 5420SOL     OW26593   1.220   0.822   2.438
 5420SOL    HW126594   1.287   0.752   2.410
 5420SOL    HW226595   1.235   0.905   2.384
 5421SOL     OW26596   3.494   9.200   0.218
 5421SOL    HW126597   3.509   9.269   0.147
 5421SOL    HW226598   3.505   9.243   0.308
 5422SOL     OW26599   1.619   9.032   1.279
 5422SOL    HW126600   1.682   8.958   1.260
 5422SOL    HW226601   1.664   9.120   1.264
 5423SOL     OW26602   8.089   9.877   1.595
 5423SOL    HW126603   8.053   9.927   1.673
 5423SOL    HW226604   8.095   9.779   1.617
 5424SOL     OW26605   7.927   0.344   2.564
 5424SOL    HW126606   7.934   0.391   2.476
 5424SOL    HW226607   7.958   0.249   2.553
 5425SOL     OW26608   3.169   2.132   1.854
 5425SOL    HW126609   3.155   2.230   1.840
 5425SOL    HW226610   3.245   2.117   1.917
 5426SOL     OW26611   7.518   9.262   1.870
 5426SOL    HW126612   7.485   9.267   1.964
 5426SOL    HW226613   7.608   9.304   1.863
 5427SOL     OW26614   4.690   1.086   1.207
 5427SOL    HW126615   4.753   1.162   1.193
 5427SOL    HW226616   4.655   1.055   1.118
 5428SOL     OW26617   8.336   9.394   0.528
 5428SOL    HW126618   8.375   9.332   0.596
 5428SOL    HW226619   8.398   9.402   0.450
 5429SOL     OW26620   2.355   1.674   2.382
 5429SOL    HW126621   2.423   1.711   2.446
 5429SOL    HW226622   2.264   1.682   2.423
 5430SOL     OW26623   9.279   4.900   1.849
 5430SOL    HW126624   9.360   4.944   1.810
 5430SOL    HW226625   9.203   4.964   1.847
 5431SOL     OW26626   4.018   8.051   2.950
 5431SOL    HW126627   4.010   8.150   2.957
 5431SOL    HW226628   3.963   8.018   2.873
 5432SOL     OW26629   3.480   9.344   2.699
 5432SOL    HW126630   3.459   9.285   2.777
 5432SOL    HW226631   3.459   9.439   2.722
 5433SOL     OW26632   3.010   9.791   2.194
 5433SOL    HW126633   3.066   9.725   2.145
 5433SOL    HW226634   2.944   9.832   2.130
 5434SOL     OW26635   2.797   2.417   2.753
 5434SOL    HW126636   2.743   2.486   2.800
 5434SOL    HW226637   2.817   2.342   2.817
 5435SOL     OW26638   4.372   0.643   0.562
 5435SOL    HW126639   4.464   0.678   0.549
 5435SOL    HW226640   4.343   0.659   0.657
 5436SOL     OW26641   2.173   8.428   3.036
 5436SOL    HW126642   2.233   8.489   2.984
 5436SOL    HW226643   2.174   8.454   3.132
 5437SOL     OW26644   7.303   9.394   0.147
 5437SOL    HW126645   7.280   9.435   0.060
 5437SOL    HW226646   7.294   9.461   0.220
 5438SOL     OW26647   0.597   9.703   0.829
 5438SOL    HW126648   0.587   9.732   0.924
 5438SOL    HW226649   0.521   9.740   0.775
 5439SOL     OW26650   2.211   3.705   1.094
 5439SOL    HW126651   2.228   3.672   1.001
 5439SOL    HW226652   2.144   3.779   1.091
 5440SOL     OW26653   4.757   0.221   3.079
 5440SOL    HW126654   4.765   0.223   3.179
 5440SOL    HW226655   4.848   0.208   3.038
 5441SOL     OW26656   3.384   7.014   0.889
 5441SOL    HW126657   3.398   7.048   0.796
 5441SOL    HW226658   3.354   6.918   0.885
 5442SOL     OW26659   2.072   3.092   2.335
 5442SOL    HW126660   1.979   3.059   2.317
 5442SOL    HW226661   2.130   3.015   2.359
 5443SOL     OW26662   4.587   2.149   2.327
 5443SOL    HW126663   4.592   2.239   2.369
 5443SOL    HW226664   4.563   2.158   2.230
 5444SOL     OW26665   8.654   0.062   0.328
 5444SOL    HW126666   8.597   0.099   0.402
 5444SOL    HW226667   8.750   0.068   0.354
 5445SOL     OW26668   5.105   3.428   0.853
 5445SOL    HW126669   5.127   3.510   0.906
 5445SOL    HW226670   5.017   3.392   0.883
 5446SOL     OW26671   8.058   2.646   1.862
 5446SOL    HW126672   8.078   2.740   1.891
 5446SOL    HW226673   8.052   2.587   1.943
 5447SOL     OW26674   2.725   3.518   1.448
 5447SOL    HW126675   2.718   3.424   1.412
 5447SOL    HW226676   2.662   3.577   1.397
 5448SOL     OW26677   7.889   8.520   2.559
 5448SOL    HW126678   7.796   8.504   2.592
 5448SOL    HW226679   7.935   8.585   2.619
 5449SOL     OW26680   0.791   3.668   0.712
 5449SOL    HW126681   0.777   3.573   0.684
 5449SOL    HW226682   0.789   3.727   0.631
 5450SOL     OW26683   0.619   0.692   3.110
 5450SOL    HW126684   0.685   0.707   3.183
 5450SOL    HW226685   0.584   0.599   3.114
 5451SOL     OW26686   2.243   2.998   0.801
 5451SOL    HW126687   2.168   2.971   0.740
 5451SOL    HW226688   2.236   2.945   0.886
 5452SOL     OW26689   9.000   4.662   1.735
 5452SOL    HW126690   9.094   4.638   1.761
 5452SOL    HW226691   8.953   4.580   1.703
 5453SOL     OW26692   8.467   3.463   0.421
 5453SOL    HW126693   8.418   3.550   0.423
 5453SOL    HW226694   8.425   3.400   0.486
 5454SOL     OW26695   7.958   0.444   2.305
 5454SOL    HW126696   7.898   0.422   2.227
 5454SOL    HW226697   8.053   0.430   2.278
 5455SOL     OW26698   4.172   0.911   2.335
 5455SOL    HW126699   4.097   0.904   2.401
 5455SOL    HW226700   4.140   0.885   2.244
 5456SOL     OW26701   0.694   0.618   2.849
 5456SOL    HW126702   0.662   0.649   2.939
 5456SOL    HW226703   0.729   0.697   2.798
 5457SOL     OW26704   1.122   3.956   0.720
 5457SOL    HW126705   1.091   4.031   0.778
 5457SOL    HW226706   1.081   3.965   0.629
 5458SOL     OW26707   1.254   6.494   2.085
 5458SOL    HW126708   1.233   6.497   2.182
 5458SOL    HW226709   1.172   6.467   2.034
 5459SOL     OW26710   2.831   7.417   0.358
 5459SOL    HW126711   2.767   7.494   0.354
 5459SOL    HW226712   2.813   7.363   0.440
 5460SOL     OW26713   1.077   9.732   2.724
 5460SOL    HW126714   1.143   9.666   2.690
 5460SOL    HW226715   1.070   9.808   2.659
 5461SOL     OW26716   2.718   6.227   2.561
 5461SOL    HW126717   2.662   6.231   2.479
 5461SOL    HW226718   2.814   6.212   2.535
 5462SOL     OW26719   3.998   1.844   2.924
 5462SOL    HW126720   3.977   1.899   2.843
 5462SOL    HW226721   3.929   1.861   2.994
 5463SOL     OW26722   8.748   1.442   2.034
 5463SOL    HW126723   8.764   1.525   2.088
 5463SOL    HW226724   8.777   1.362   2.085
 5464SOL     OW26725   8.954   9.467   2.671
 5464SOL    HW126726   9.041   9.469   2.624
 5464SOL    HW226727   8.918   9.373   2.672
 5465SOL     OW26728   1.427   5.742   1.526
 5465SOL    HW126729   1.410   5.838   1.505
 5465SOL    HW226730   1.342   5.690   1.512
 5466SOL     OW26731   2.303   7.080   1.650
 5466SOL    HW126732   2.238   7.006   1.632
 5466SOL    HW226733   2.365   7.052   1.724
 5467SOL     OW26734   0.203   6.101   2.604
 5467SOL    HW126735   0.268   6.079   2.677
 5467SOL    HW226736   0.225   6.047   2.523
 5468SOL     OW26737   8.691   1.341   0.856
 5468SOL    HW126738   8.751   1.342   0.936
 5468SOL    HW226739   8.702   1.427   0.806
 5469SOL     OW26740   8.011   2.035   1.580
 5469SOL    HW126741   8.031   2.108   1.645
 5469SOL    HW226742   8.083   1.966   1.585
 5470SOL     OW26743   3.896   7.678   2.005
 5470SOL    HW126744   3.877   7.628   2.089
 5470SOL    HW226745   3.853   7.631   1.927
 5471SOL     OW26746   8.964   8.124   2.495
 5471SOL    HW126747   8.996   8.031   2.516
 5471SOL    HW226748   9.041   8.188   2.503
 5472SOL     OW26749   8.998   4.418   1.987
 5472SOL    HW126750   9.097   4.436   1.982
 5472SOL    HW226751   8.973   4.349   1.919
 5473SOL     OW26752   0.230   7.038   1.043
 5473SOL    HW126753   0.178   7.049   0.958
 5473SOL    HW226754   0.313   6.987   1.025
 5474SOL     OW26755   4.030   2.653   1.387
 5474SOL    HW126756   3.932   2.633   1.379
 5474SOL    HW226757   4.071   2.590   1.453
 5475SOL     OW26758   7.503   1.717   0.487
 5475SOL    HW126759   7.464   1.705   0.396
 5475SOL    HW226760   7.473   1.643   0.547
 5476SOL     OW26761   4.605   9.019   1.595
 5476SOL    HW126762   4.535   9.043   1.662
 5476SOL    HW226763   4.691   8.999   1.643
 5477SOL     OW26764   1.569   1.907   1.411
 5477SOL    HW126765   1.486   1.869   1.451
 5477SOL    HW226766   1.546   1.953   1.325
 5478SOL     OW26767   3.249   2.852   2.492
 5478SOL    HW126768   3.226   2.762   2.454
 5478SOL    HW226769   3.270   2.842   2.589
 5479SOL     OW26770   9.766   7.634   2.763
 5479SOL    HW126771   9.679   7.674   2.734
 5479SOL    HW226772   9.825   7.620   2.684
 5480SOL     OW26773   0.843   6.591   1.130
 5480SOL    HW126774   0.915   6.522   1.131
 5480SOL    HW226775   0.832   6.629   1.222
 5481SOL     OW26776   8.638   1.232   2.712
 5481SOL    HW126777   8.648   1.237   2.811
 5481SOL    HW226778   8.629   1.137   2.684
 5482SOL     OW26779   9.773   3.689   3.082
 5482SOL    HW126780   9.684   3.726   3.056
 5482SOL    HW226781   9.785   3.698   3.181
 5483SOL     OW26782   7.398   9.317   2.527
 5483SOL    HW126783   7.324   9.364   2.480
 5483SOL    HW226784   7.382   9.318   2.625
 5484SOL     OW26785   0.994   9.124   0.120
 5484SOL    HW126786   0.960   9.063   0.192
 5484SOL    HW226787   0.945   9.105   0.035
 5485SOL     OW26788   4.403   1.823   2.142
 5485SOL    HW126789   4.307   1.807   2.121
 5485SOL    HW226790   4.419   1.808   2.239
 5486SOL     OW26791   3.755   3.775   2.693
 5486SOL    HW126792   3.847   3.812   2.704
 5486SOL    HW226793   3.737   3.709   2.767
 5487SOL     OW26794   2.823   8.380   1.581
 5487SOL    HW126795   2.805   8.415   1.673
 5487SOL    HW226796   2.825   8.280   1.584
 5488SOL     OW26797   8.174   9.417   2.774
 5488SOL    HW126798   8.108   9.348   2.746
 5488SOL    HW226799   8.177   9.491   2.707
 5489SOL     OW26800   7.750   2.852   1.055
 5489SOL    HW126801   7.753   2.767   1.003
 5489SOL    HW226802   7.798   2.839   1.142
 5490SOL     OW26803   2.499   0.534   1.192
 5490SOL    HW126804   2.415   0.499   1.235
 5490SOL    HW226805   2.475   0.594   1.117
 5491SOL     OW26806   4.037   4.788   2.777
 5491SOL    HW126807   3.976   4.753   2.706
 5491SOL    HW226808   4.083   4.870   2.744
 5492SOL     OW26809   3.078   0.829   0.463
 5492SOL    HW126810   2.990   0.787   0.485
 5492SOL    HW226811   3.152   0.776   0.506
 5493SOL     OW26812   1.252   0.373   1.664
 5493SOL    HW126813   1.194   0.410   1.592
 5493SOL    HW226814   1.348   0.375   1.636
 5494SOL     OW26815   4.401   2.594   2.129
 5494SOL    HW126816   4.416   2.545   2.044
 5494SOL    HW226817   4.353   2.535   2.194
 5495SOL     OW26818   9.189   7.029   0.778
 5495SOL    HW126819   9.137   6.970   0.718
 5495SOL    HW226820   9.257   6.975   0.828
 5496SOL     OW26821   1.723   0.782   1.573
 5496SOL    HW126822   1.631   0.763   1.607
 5496SOL    HW226823   1.768   0.847   1.634
 5497SOL     OW26824   9.316   7.842   2.531
 5497SOL    HW126825   9.222   7.860   2.560
 5497SOL    HW226826   9.321   7.841   2.432
 5498SOL     OW26827   9.828   9.373   0.872
 5498SOL    HW126828   9.809   9.278   0.850
 5498SOL    HW226829   9.765   9.404   0.943
 5499SOL     OW26830   2.855   7.055   2.364
 5499SOL    HW126831   2.912   7.062   2.446
 5499SOL    HW226832   2.865   7.137   2.308
 5500SOL     OW26833   3.800   9.757   1.769
 5500SOL    HW126834   3.897   9.781   1.757
 5500SOL    HW226835   3.747   9.800   1.696
 5501SOL     OW26836   4.000   2.539   1.079
 5501SOL    HW126837   4.005   2.639   1.082
 5501SOL    HW226838   4.011   2.503   1.172
 5502SOL     OW26839   5.573   8.984   2.114
 5502SOL    HW126840   5.526   8.896   2.113
 5502SOL    HW226841   5.647   8.984   2.047
 5503SOL     OW26842   4.185   2.957   0.082
 5503SOL    HW126843   4.189   3.056   0.094
 5503SOL    HW226844   4.259   2.928   0.021
 5504SOL     OW26845   9.269   2.049   1.045
 5504SOL    HW126846   9.308   2.041   0.953
 5504SOL    HW226847   9.278   1.962   1.093
 5505SOL     OW26848   3.075   5.134   1.774
 5505SOL    HW126849   3.150   5.068   1.771
 5505SOL    HW226850   3.111   5.227   1.764
 5506SOL     OW26851   0.329   5.821   0.287
 5506SOL    HW126852   0.305   5.907   0.332
 5506SOL    HW226853   0.246   5.780   0.249
 5507SOL     OW26854   1.631   5.767   2.527
 5507SOL    HW126855   1.697   5.792   2.598
 5507SOL    HW226856   1.613   5.846   2.469
 5508SOL     OW26857   2.845   8.579   0.671
 5508SOL    HW126858   2.901   8.523   0.610
 5508SOL    HW226859   2.849   8.675   0.641
 5509SOL     OW26860   7.982   7.882   1.636
 5509SOL    HW126861   7.997   7.794   1.681
 5509SOL    HW226862   7.970   7.953   1.706
 5510SOL     OW26863   4.579   9.456   1.954
 5510SOL    HW126864   4.547   9.502   2.037
 5510SOL    HW226865   4.502   9.417   1.904
 5511SOL     OW26866   4.428   0.261   1.148
 5511SOL    HW126867   4.353   0.262   1.083
 5511SOL    HW226868   4.401   0.209   1.229
 5512SOL     OW26869   9.449   1.895   2.916
 5512SOL    HW126870   9.460   1.799   2.889
 5512SOL    HW226871   9.373   1.935   2.864
 5513SOL     OW26872   0.100   2.420   1.447
 5513SOL    HW126873   0.141   2.366   1.519
 5513SOL    HW226874   0.037   2.363   1.393
 5514SOL     OW26875   1.817   7.972   2.600
 5514SOL    HW126876   1.834   8.061   2.557
 5514SOL    HW226877   1.785   7.986   2.693
 5515SOL     OW26878   7.948   4.443   0.759
 5515SOL    HW126879   8.028   4.392   0.726
 5515SOL    HW226880   7.866   4.410   0.711
 5516SOL     OW26881   0.334   9.356   2.851
 5516SOL    HW126882   0.391   9.293   2.904
 5516SOL    HW226883   0.244   9.364   2.894
 5517SOL     OW26884   8.510   4.916   1.941
 5517SOL    HW126885   8.540   4.834   1.892
 5517SOL    HW226886   8.437   4.892   2.004
 5518SOL     OW26887   4.677   0.785   3.042
 5518SOL    HW126888   4.637   0.832   3.121
 5518SOL    HW226889   4.606   0.767   2.974
 5519SOL     OW26890   3.085   2.723   1.499
 5519SOL    HW126891   3.072   2.760   1.406
 5519SOL    HW226892   3.183   2.714   1.517
 5520SOL     OW26893   4.900   0.256   2.745
 5520SOL    HW126894   4.946   0.222   2.827
 5520SOL    HW226895   4.963   0.250   2.667
 5521SOL     OW26896   3.104   2.046   3.114
 5521SOL    HW126897   3.177   2.003   3.062
 5521SOL    HW226898   3.137   2.071   3.205
 5522SOL     OW26899   3.218   0.974   1.095
 5522SOL    HW126900   3.203   1.045   1.164
 5522SOL    HW226901   3.153   0.985   1.020
 5523SOL     OW26902   0.946   7.241   1.917
 5523SOL    HW126903   1.037   7.199   1.913
 5523SOL    HW226904   0.927   7.270   2.011
 5524SOL     OW26905   8.202   6.377   2.865
 5524SOL    HW126906   8.179   6.349   2.772
 5524SOL    HW226907   8.290   6.337   2.891
 5525SOL     OW26908   8.732   3.393   1.204
 5525SOL    HW126909   8.655   3.371   1.263
 5525SOL    HW226910   8.702   3.455   1.132
 5526SOL     OW26911   3.106   3.753   2.407
 5526SOL    HW126912   3.204   3.772   2.401
 5526SOL    HW226913   3.080   3.689   2.336
 5527SOL     OW26914   4.510   9.574   2.198
 5527SOL    HW126915   4.475   9.497   2.252
 5527SOL    HW226916   4.588   9.615   2.246
 5528SOL     OW26917   4.460   1.428   1.209
 5528SOL    HW126918   4.488   1.385   1.295
 5528SOL    HW226919   4.493   1.522   1.206
 5529SOL     OW26920   0.063   3.415   1.329
 5529SOL    HW126921   0.034   3.409   1.233
 5529SOL    HW226922   0.072   3.323   1.366
 5530SOL     OW26923   9.966   2.432   2.960
 5530SOL    HW126924   9.890   2.472   2.908
 5530SOL    HW226925   9.931   2.363   3.022
 5531SOL     OW26926   0.458   5.320   2.758
 5531SOL    HW126927   0.396   5.318   2.837
 5531SOL    HW226928   0.532   5.385   2.776
 5532SOL     OW26929   0.935   1.587   0.425
 5532SOL    HW126930   0.859   1.576   0.488
 5532SOL    HW226931   0.980   1.498   0.412
 5533SOL     OW26932   8.754   2.834   0.225
 5533SOL    HW126933   8.665   2.803   0.258
 5533SOL    HW226934   8.756   2.934   0.223
 5534SOL     OW26935   9.746   6.917   2.884
 5534SOL    HW126936   9.746   6.832   2.936
 5534SOL    HW226937   9.809   6.982   2.926
 5535SOL     OW26938   1.933   7.951   0.121
 5535SOL    HW126939   1.951   7.996   0.208
 5535SOL    HW226940   1.942   8.017   0.047
 5536SOL     OW26941   0.632   9.778   2.713
 5536SOL    HW126942   0.558   9.712   2.703
 5536SOL    HW226943   0.713   9.732   2.748
 5537SOL     OW26944   7.417   8.084   2.516
 5537SOL    HW126945   7.424   8.003   2.575
 5537SOL    HW226946   7.506   8.128   2.509
 5538SOL     OW26947   4.446   8.596   2.873
 5538SOL    HW126948   4.369   8.531   2.873
 5538SOL    HW226949   4.443   8.650   2.957
 5539SOL     OW26950   8.198   8.097   1.901
 5539SOL    HW126951   8.235   8.144   1.821
 5539SOL    HW226952   8.102   8.074   1.884
 5540SOL     OW26953   0.004   6.156   2.984
 5540SOL    HW126954   9.939   6.105   2.928
 5540SOL    HW226955   9.966   6.245   3.007
 5541SOL     OW26956   3.478   3.459   2.945
 5541SOL    HW126957   3.485   3.368   2.985
 5541SOL    HW226958   3.383   3.478   2.920
 5542SOL     OW26959   3.964   2.182   2.407
 5542SOL    HW126960   4.035   2.112   2.411
 5542SOL    HW226961   3.901   2.160   2.333
 5543SOL     OW26962   9.092   6.229   2.654
 5543SOL    HW126963   9.128   6.295   2.720
 5543SOL    HW226964   9.008   6.265   2.613
 5544SOL     OW26965   9.799   5.792   1.402
 5544SOL    HW126966   9.722   5.746   1.358
 5544SOL    HW226967   9.766   5.840   1.484
 5545SOL     OW26968   2.205   0.904   0.398
 5545SOL    HW126969   2.167   0.968   0.331
 5545SOL    HW226970   2.191   0.941   0.490
 5546SOL     OW26971   4.132   1.759   2.105
 5546SOL    HW126972   4.136   1.702   2.023
 5546SOL    HW226973   4.098   1.850   2.081
 5547SOL     OW26974   4.298   5.047   1.712
 5547SOL    HW126975   4.352   4.982   1.766
 5547SOL    HW226976   4.310   5.027   1.615
 5548SOL     OW26977   9.458   9.485   0.237
 5548SOL    HW126978   9.398   9.466   0.315
 5548SOL    HW226979   9.440   9.578   0.204
 5549SOL     OW26980   2.617   4.110   0.400
 5549SOL    HW126981   2.645   4.033   0.344
 5549SOL    HW226982   2.525   4.140   0.374
 5550SOL     OW26983   3.199   7.565   0.743
 5550SOL    HW126984   3.200   7.646   0.684
 5550SOL    HW226985   3.148   7.585   0.827
 5551SOL     OW26986   7.737   7.806   2.775
 5551SOL    HW126987   7.827   7.765   2.793
 5551SOL    HW226988   7.697   7.764   2.693
 5552SOL     OW26989   2.068   5.364   1.872
 5552SOL    HW126990   2.067   5.299   1.796
 5552SOL    HW226991   2.078   5.315   1.958
 5553SOL     OW26992   4.819   8.017   0.539
 5553SOL    HW126993   4.775   8.106   0.550
 5553SOL    HW226994   4.772   7.965   0.467
 5554SOL     OW26995   2.090   8.054   2.879
 5554SOL    HW126996   2.040   8.140   2.886
 5554SOL    HW226997   2.188   8.071   2.893
 5555SOL     OW26998   1.894   5.448   1.331
 5555SOL    HW126999   1.893   5.490   1.422
 5555SOL    HW227000   1.801   5.427   1.303
 5556SOL     OW27001   6.461   8.500   2.419
 5556SOL    HW127002   6.474   8.536   2.511
 5556SOL    HW227003   6.374   8.450   2.414
 5557SOL     OW27004   1.619   7.821   2.484
 5557SOL    HW127005   1.649   7.727   2.499
 5557SOL    HW227006   1.690   7.884   2.515
 5558SOL     OW27007   3.965   5.690   2.568
 5558SOL    HW127008   3.966   5.591   2.587
 5558SOL    HW227009   4.030   5.736   2.629
 5559SOL     OW27010   8.899   0.524   1.668
 5559SOL    HW127011   8.978   0.507   1.609
 5559SOL    HW227012   8.845   0.441   1.678
 5560SOL     OW27013   9.178   6.692   1.279
 5560SOL    HW127014   9.149   6.598   1.300
 5560SOL    HW227015   9.251   6.719   1.342
 5561SOL     OW27016   9.970   5.591   1.943
 5561SOL    HW127017   0.035   5.640   2.000
 5561SOL    HW227018   9.991   5.493   1.946
 5562SOL     OW27019   6.801   9.006   2.780
 5562SOL    HW127020   6.776   8.911   2.799
 5562SOL    HW227021   6.796   9.060   2.864
 5563SOL     OW27022   1.655   7.552   2.539
 5563SOL    HW127023   1.564   7.555   2.579
 5563SOL    HW227024   1.649   7.523   2.443
 5564SOL     OW27025   1.919   9.590   2.472
 5564SOL    HW127026   2.005   9.601   2.422
 5564SOL    HW227027   1.885   9.497   2.462
 5565SOL     OW27028   4.178   0.808   0.458
 5565SOL    HW127029   4.249   0.745   0.490
 5565SOL    HW227030   4.117   0.831   0.533
 5566SOL     OW27031   9.834   1.994   2.722
 5566SOL    HW127032   9.849   1.951   2.632
 5566SOL    HW227033   9.767   2.068   2.712
 5567SOL     OW27034   9.020   3.897   0.161
 5567SOL    HW127035   8.955   3.910   0.236
 5567SOL    HW227036   9.018   3.802   0.131
 5568SOL     OW27037   3.092   3.713   2.678
 5568SOL    HW127038   3.093   3.730   2.580
 5568SOL    HW227039   3.156   3.640   2.700
 5569SOL     OW27040   1.834   4.140   1.933
 5569SOL    HW127041   1.742   4.172   1.958
 5569SOL    HW227042   1.828   4.080   1.854
 5570SOL     OW27043   2.576   7.494   1.530
 5570SOL    HW127044   2.524   7.465   1.610
 5570SOL    HW227045   2.567   7.593   1.518
 5571SOL     OW27046   0.109   9.967   2.630
 5571SOL    HW127047   0.128   9.925   2.719
 5571SOL    HW227048   0.194   0.006   2.594
 5572SOL     OW27049   1.040   4.914   0.069
 5572SOL    HW127050   1.068   4.920   4.013
 5572SOL    HW227051   0.940   4.921   0.075
 5573SOL     OW27052   4.016   4.701   3.033
 5573SOL    HW127053   4.033   4.741   2.943
 5573SOL    HW227054   4.051   4.607   3.035
 5574SOL     OW27055   3.096   2.841   1.245
 5574SOL    HW127056   3.005   2.844   1.202
 5574SOL    HW227057   3.143   2.928   1.227
 5575SOL     OW27058   3.391   0.616   1.071
 5575SOL    HW127059   3.403   0.620   0.972
 5575SOL    HW227060   3.481   0.615   1.115
 5576SOL     OW27061   4.936   2.895   0.201
 5576SOL    HW127062   4.904   2.976   0.249
 5576SOL    HW227063   5.036   2.893   0.202
 5577SOL     OW27064   0.546   2.473   0.566
 5577SOL    HW127065   0.458   2.429   0.585
 5577SOL    HW227066   0.602   2.472   0.649
 5578SOL     OW27067   9.093   5.460   2.004
 5578SOL    HW127068   9.181   5.476   2.048
 5578SOL    HW227069   9.090   5.506   1.916
 5579SOL     OW27070   8.510   8.663   0.517
 5579SOL    HW127071   8.566   8.585   0.543
 5579SOL    HW227072   8.526   8.686   0.421
 5580SOL     OW27073   4.084   8.880   2.134
 5580SOL    HW127074   4.007   8.822   2.107
 5580SOL    HW227075   4.168   8.845   2.093
 5581SOL     OW27076   3.136   8.955   3.134
 5581SOL    HW127077   3.133   8.941   3.233
 5581SOL    HW227078   3.043   8.954   3.097
 5582SOL     OW27079   9.517   8.807   0.807
 5582SOL    HW127080   9.420   8.801   0.787
 5582SOL    HW227081   9.549   8.901   0.793
 5583SOL     OW27082   8.863   9.181   0.088
 5583SOL    HW127083   8.848   9.106   0.025
 5583SOL    HW227084   8.960   9.186   0.112
 5584SOL     OW27085   0.072   7.711   1.660
 5584SOL    HW127086   0.049   7.804   1.688
 5584SOL    HW227087   0.108   7.712   1.567
 5585SOL     OW27088   0.625   3.194   0.524
 5585SOL    HW127089   0.597   3.151   0.610
 5585SOL    HW227090   0.557   3.174   0.454
 5586SOL     OW27091   4.759   0.317   0.191
 5586SOL    HW127092   4.754   0.280   0.284
 5586SOL    HW227093   4.706   0.259   0.129
 5587SOL     OW27094   6.870   0.286   2.139
 5587SOL    HW127095   6.945   0.327   2.190
 5587SOL    HW227096   6.892   0.190   2.119
 5588SOL     OW27097   1.846   5.878   2.672
 5588SOL    HW127098   1.902   5.863   2.754
 5588SOL    HW227099   1.894   5.843   2.592
 5589SOL     OW27100   2.386   8.486   1.013
 5589SOL    HW127101   2.385   8.502   0.914
 5589SOL    HW227102   2.480   8.464   1.041
 5590SOL     OW27103   2.777   0.655   0.081
 5590SOL    HW127104   2.727   0.571   0.099
 5590SOL    HW227105   2.720   0.716   0.024
 5591SOL     OW27106   1.397   4.896   1.264
 5591SOL    HW127107   1.467   4.869   1.330
 5591SOL    HW227108   1.317   4.930   1.313
 5592SOL     OW27109   1.236   9.223   2.064
 5592SOL    HW127110   1.214   9.223   1.967
 5592SOL    HW227111   1.307   9.155   2.082
 5593SOL     OW27112   3.518   4.964   0.313
 5593SOL    HW127113   3.576   4.942   0.392
 5593SOL    HW227114   3.461   4.885   0.291
 5594SOL     OW27115   4.662   2.115   1.513
 5594SOL    HW127116   4.659   2.030   1.460
 5594SOL    HW227117   4.597   2.110   1.588
 5595SOL     OW27118   4.640   0.218   0.986
 5595SOL    HW127119   4.720   0.274   1.006
 5595SOL    HW227120   4.567   0.240   1.050
 5596SOL     OW27121   8.524   1.372   0.450
 5596SOL    HW127122   8.499   1.275   0.461
 5596SOL    HW227123   8.622   1.379   0.432
 5597SOL     OW27124   3.713   4.978   1.557
 5597SOL    HW127125   3.777   4.911   1.592
 5597SOL    HW227126   3.748   5.017   1.472
 5598SOL     OW27127   8.979   8.828   3.090
 5598SOL    HW127128   9.047   8.899   3.109
 5598SOL    HW227129   8.897   8.869   3.050
 5599SOL     OW27130   3.206   5.937   2.205
 5599SOL    HW127131   3.138   5.931   2.133
 5599SOL    HW227132   3.251   5.848   2.217
 5600SOL     OW27133   2.236   4.083   0.106
 5600SOL    HW127134   2.268   4.001   0.153
 5600SOL    HW227135   2.189   4.057   0.022
 5601SOL     OW27136   7.924   2.418   1.761
 5601SOL    HW127137   7.966   2.507   1.779
 5601SOL    HW227138   7.887   2.416   1.669
 5602SOL     OW27139   1.025   4.153   0.888
 5602SOL    HW127140   1.032   4.242   0.843
 5602SOL    HW227141   0.940   4.149   0.941
 5603SOL     OW27142   1.110   0.114   2.772
 5603SOL    HW127143   1.072   0.087   2.860
 5603SOL    HW227144   1.210   0.112   2.777
 5604SOL     OW27145   0.082   9.778   0.177
 5604SOL    HW127146   0.062   9.808   0.270
 5604SOL    HW227147   0.058   9.681   0.167
 5605SOL     OW27148   9.762   9.660   0.506
 5605SOL    HW127149   9.768   9.570   0.462
 5605SOL    HW227150   9.750   9.730   0.436
 5606SOL     OW27151   0.265   0.495   0.772
 5606SOL    HW127152   0.322   0.416   0.794
 5606SOL    HW227153   0.309   0.549   0.701
 5607SOL     OW27154   2.683   7.507   0.053
 5607SOL    HW127155   2.651   7.569   4.022
 5607SOL    HW227156   2.782   7.513   0.060
 5608SOL     OW27157   7.321   8.542   2.522
 5608SOL    HW127158   7.314   8.616   2.588
 5608SOL    HW227159   7.300   8.455   2.567
 5609SOL     OW27160   8.291   9.837   0.646
 5609SOL    HW127161   8.283   9.909   0.715
 5609SOL    HW227162   8.282   9.748   0.689
 5610SOL     OW27163   0.182   2.587   2.411
 5610SOL    HW127164   0.272   2.630   2.418
 5610SOL    HW227165   0.191   2.494   2.377
 5611SOL     OW27166   0.663   6.830   0.258
 5611SOL    HW127167   0.600   6.824   0.336
 5611SOL    HW227168   0.658   6.746   0.204
 5612SOL     OW27169   7.664   2.631   0.201
 5612SOL    HW127170   7.713   2.718   0.206
 5612SOL    HW227171   7.709   2.571   0.135
 5613SOL     OW27172   0.122   2.002   0.101
 5613SOL    HW127173   0.178   2.017   0.019
 5613SOL    HW227174   0.155   1.920   0.149
 5614SOL     OW27175   9.120   9.568   1.628
 5614SOL    HW127176   9.166   9.481   1.648
 5614SOL    HW227177   9.048   9.584   1.696
 5615SOL     OW27178   9.524   6.588   2.257
 5615SOL    HW127179   9.575   6.562   2.340
 5615SOL    HW227180   9.495   6.505   2.209
 5616SOL     OW27181   3.519   7.304   0.276
 5616SOL    HW127182   3.522   7.242   0.198
 5616SOL    HW227183   3.460   7.382   0.254
 5617SOL     OW27184   0.898   8.225   1.935
 5617SOL    HW127185   0.997   8.241   1.939
 5617SOL    HW227186   0.878   8.133   1.967
 5618SOL     OW27187   3.049   0.732   2.447
 5618SOL    HW127188   3.036   0.677   2.529
 5618SOL    HW227189   2.988   0.811   2.450
 5619SOL     OW27190   8.917   3.142   1.742
 5619SOL    HW127191   8.841   3.093   1.785
 5619SOL    HW227192   8.906   3.141   1.643
 5620SOL     OW27193   8.497   1.767   1.482
 5620SOL    HW127194   8.519   1.689   1.424
 5620SOL    HW227195   8.460   1.734   1.569
 5621SOL     OW27196   3.329   1.588   1.230
 5621SOL    HW127197   3.347   1.684   1.254
 5621SOL    HW227198   3.380   1.528   1.292
 5622SOL     OW27199   2.759   4.618   2.038
 5622SOL    HW127200   2.669   4.574   2.033
 5622SOL    HW227201   2.829   4.547   2.045
 5623SOL     OW27202   0.445   3.128   0.334
 5623SOL    HW127203   0.367   3.165   0.383
 5623SOL    HW227204   0.439   3.153   0.237
 5624SOL     OW27205   2.370   8.088   2.873
 5624SOL    HW127206   2.389   8.001   2.920
 5624SOL    HW227207   2.382   8.076   2.775
 5625SOL     OW27208   4.002   7.865   1.838
 5625SOL    HW127209   4.006   7.826   1.746
 5625SOL    HW227210   3.956   7.802   1.899
 5626SOL     OW27211   1.001   5.912   0.532
 5626SOL    HW127212   1.047   5.826   0.510
 5626SOL    HW227213   0.955   5.903   0.620
 5627SOL     OW27214   5.102   0.583   1.759
 5627SOL    HW127215   5.197   0.578   1.728
 5627SOL    HW227216   5.049   0.507   1.721
 5628SOL     OW27217   9.011   6.698   1.736
 5628SOL    HW127218   9.054   6.770   1.682
 5628SOL    HW227219   9.033   6.609   1.697
 5629SOL     OW27220   2.703   4.349   2.310
 5629SOL    HW127221   2.795   4.332   2.346
 5629SOL    HW227222   2.683   4.281   2.240
 5630SOL     OW27223   9.573   9.860   2.241
 5630SOL    HW127224   9.596   9.885   2.335
 5630SOL    HW227225   9.542   9.941   2.191
 5631SOL     OW27226   3.792   0.922   0.301
 5631SOL    HW127227   3.786   0.995   0.370
 5631SOL    HW227228   3.719   0.934   0.234
 5632SOL     OW27229   4.614   8.041   2.693
 5632SOL    HW127230   4.611   8.137   2.663
 5632SOL    HW227231   4.521   8.003   2.690
 5633SOL     OW27232   2.276   7.681   2.349
 5633SOL    HW127233   2.200   7.708   2.290
 5633SOL    HW227234   2.349   7.750   2.343
 5634SOL     OW27235   0.553   5.418   1.726
 5634SOL    HW127236   0.640   5.380   1.757
 5634SOL    HW227237   0.569   5.505   1.680
 5635SOL     OW27238   4.505   3.944   0.279
 5635SOL    HW127239   4.583   3.947   0.218
 5635SOL    HW227240   4.492   3.851   0.314
 5636SOL     OW27241   4.915   1.401   2.196
 5636SOL    HW127242   4.824   1.376   2.228
 5636SOL    HW227243   4.939   1.491   2.232
 5637SOL     OW27244   4.811   7.296   2.503
 5637SOL    HW127245   4.722   7.336   2.527
 5637SOL    HW227246   4.825   7.213   2.557
 5638SOL     OW27247   3.650   8.122   2.582
 5638SOL    HW127248   3.699   8.067   2.515
 5638SOL    HW227249   3.577   8.174   2.536
 5639SOL     OW27250   0.321   3.889   0.724
 5639SOL    HW127251   0.354   3.802   0.686
 5639SOL    HW227252   0.396   3.935   0.772
 5640SOL     OW27253   2.697   6.667   3.021
 5640SOL    HW127254   2.674   6.569   3.016
 5640SOL    HW227255   2.618   6.721   2.993
 5641SOL     OW27256   3.275   4.344   0.255
 5641SOL    HW127257   3.292   4.256   0.210
 5641SOL    HW227258   3.341   4.411   0.223
 5642SOL     OW27259   9.223   2.183   0.700
 5642SOL    HW127260   9.166   2.127   0.639
 5642SOL    HW227261   9.212   2.279   0.676
 5643SOL     OW27262   5.817   8.541   1.963
 5643SOL    HW127263   5.779   8.449   1.951
 5643SOL    HW227264   5.770   8.605   1.903
 5644SOL     OW27265   4.132   0.400   0.605
 5644SOL    HW127266   4.168   0.488   0.572
 5644SOL    HW227267   4.182   0.326   0.561
 5645SOL     OW27268   8.696   2.141   0.192
 5645SOL    HW127269   8.695   2.042   0.182
 5645SOL    HW227270   8.604   2.175   0.211
 5646SOL     OW27271   4.175   1.107   2.055
 5646SOL    HW127272   4.188   1.130   1.958
 5646SOL    HW227273   4.104   1.165   2.094
 5647SOL     OW27274   0.399   3.884   2.337
 5647SOL    HW127275   0.313   3.906   2.382
 5647SOL    HW227276   0.434   3.965   2.290
 5648SOL     OW27277   9.428   9.377   3.181
 5648SOL    HW127278   9.461   9.432   3.258
 5648SOL    HW227279   9.375   9.436   3.119
 5649SOL     OW27280   2.449   8.751   0.603
 5649SOL    HW127281   2.472   8.722   0.510
 5649SOL    HW227282   2.453   8.672   0.664
 5650SOL     OW27283   2.253   0.225   2.707
 5650SOL    HW127284   2.273   0.319   2.736
 5650SOL    HW227285   2.339   0.179   2.684
 5651SOL     OW27286   1.393   0.434   0.034
 5651SOL    HW127287   1.426   0.513   4.022
 5651SOL    HW227288   1.361   0.465   0.123
 5652SOL     OW27289   9.122   9.460   0.239
 5652SOL    HW127290   9.185   9.447   0.316
 5652SOL    HW227291   9.077   9.549   0.247
 5653SOL     OW27292   4.800   0.883   1.356
 5653SOL    HW127293   4.756   0.957   1.305
 5653SOL    HW227294   4.879   0.920   1.405
 5654SOL     OW27295   2.780   8.670   2.588
 5654SOL    HW127296   2.866   8.621   2.574
 5654SOL    HW227297   2.735   8.636   2.670
 5655SOL     OW27298   0.846   0.047   2.120
 5655SOL    HW127299   0.816   9.954   2.139
 5655SOL    HW227300   0.901   0.049   2.037
 5656SOL     OW27301   0.785   4.255   1.011
 5656SOL    HW127302   0.694   4.297   1.015
 5656SOL    HW227303   0.817   4.239   1.105
 5657SOL     OW27304   1.198   8.085   1.048
 5657SOL    HW127305   1.295   8.063   1.057
 5657SOL    HW227306   1.145   8.000   1.039
 5658SOL     OW27307   4.685   9.182   1.384
 5658SOL    HW127308   4.635   9.267   1.371
 5658SOL    HW227309   4.644   9.131   1.460
 5659SOL     OW27310   9.835   5.695   0.295
 5659SOL    HW127311   9.735   5.693   0.284
 5659SOL    HW227312   9.860   5.648   0.379
 5660SOL     OW27313   7.936   8.068   1.833
 5660SOL    HW127314   7.857   8.023   1.876
 5660SOL    HW227315   7.915   8.165   1.819
 5661SOL     OW27316   2.852   5.271   2.091
 5661SOL    HW127317   2.840   5.277   1.992
 5661SOL    HW227318   2.764   5.256   2.135
 5662SOL     OW27319   0.416   2.084   1.997
 5662SOL    HW127320   0.504   2.121   2.026
 5662SOL    HW227321   0.401   1.995   2.040
 5663SOL     OW27322   1.454   4.219   2.887
 5663SOL    HW127323   1.397   4.273   2.950
 5663SOL    HW227324   1.540   4.195   2.932
 5664SOL     OW27325   3.748   0.664   2.602
 5664SOL    HW127326   3.706   0.607   2.673
 5664SOL    HW227327   3.847   0.661   2.610
 5665SOL     OW27328   0.197   8.414   0.136
 5665SOL    HW127329   0.226   8.325   0.170
 5665SOL    HW227330   0.230   8.426   0.042
 5666SOL     OW27331   4.134   1.615   2.950
 5666SOL    HW127332   4.086   1.703   2.940
 5666SOL    HW227333   4.181   1.613   3.038
 5667SOL     OW27334   3.470   6.949   2.321
 5667SOL    HW127335   3.505   7.041   2.304
 5667SOL    HW227336   3.448   6.938   2.418
 5668SOL     OW27337   9.389   1.288   0.185
 5668SOL    HW127338   9.404   1.364   0.122
 5668SOL    HW227339   9.476   1.239   0.200
 5669SOL     OW27340   2.981   8.573   0.236
 5669SOL    HW127341   3.033   8.512   0.176
 5669SOL    HW227342   2.978   8.534   0.328
 5670SOL     OW27343   7.847   1.000   1.769
 5670SOL    HW127344   7.935   0.959   1.745
 5670SOL    HW227345   7.797   0.939   1.831
 5671SOL     OW27346   9.354   4.042   2.229
 5671SOL    HW127347   9.267   4.087   2.245
 5671SOL    HW227348   9.377   3.984   2.308
 5672SOL     OW27349   8.434   1.111   0.483
 5672SOL    HW127350   8.519   1.065   0.510
 5672SOL    HW227351   8.386   1.055   0.416
 5673SOL     OW27352   1.834   2.668   2.951
 5673SOL    HW127353   1.764   2.728   2.990
 5673SOL    HW227354   1.924   2.710   2.963
 5674SOL     OW27355   8.020   0.248   1.911
 5674SOL    HW127356   7.945   0.269   1.847
 5674SOL    HW227357   8.042   0.330   1.964
 5675SOL     OW27358   9.114   2.827   1.197
 5675SOL    HW127359   9.059   2.875   1.128
 5675SOL    HW227360   9.185   2.889   1.230
 5676SOL     OW27361   3.733   1.287   0.270
 5676SOL    HW127362   3.755   1.384   0.260
 5676SOL    HW227363   3.638   1.271   0.241
 5677SOL     OW27364   8.089   3.295   0.614
 5677SOL    HW127365   8.054   3.228   0.548
 5677SOL    HW227366   8.070   3.263   0.707
 5678SOL     OW27367   7.659   8.879   0.045
 5678SOL    HW127368   7.654   8.945   0.120
 5678SOL    HW227369   7.746   8.891   4.037
 5679SOL     OW27370   4.487   9.979   1.011
 5679SOL    HW127371   4.529   9.942   1.093
 5679SOL    HW227372   4.534   0.063   0.984
 5680SOL     OW27373   4.296   7.404   1.385
 5680SOL    HW127374   4.238   7.324   1.401
 5680SOL    HW227375   4.348   7.424   1.468
 5681SOL     OW27376   0.037   7.365   1.047
 5681SOL    HW127377   9.948   7.406   1.063
 5681SOL    HW227378   0.061   7.303   1.122
 5682SOL     OW27379   3.587   5.200   1.255
 5682SOL    HW127380   3.494   5.225   1.226
 5682SOL    HW227381   3.615   5.261   1.329
 5683SOL     OW27382   3.807   9.960   1.295
 5683SOL    HW127383   3.721   9.922   1.263
 5683SOL    HW227384   3.882   9.900   1.267
 5684SOL     OW27385   8.555   6.077   2.725
 5684SOL    HW127386   8.529   6.007   2.791
 5684SOL    HW227387   8.600   6.035   2.646
 5685SOL     OW27388   3.135   8.626   1.290
 5685SOL    HW127389   3.111   8.539   1.333
 5685SOL    HW227390   3.117   8.701   1.354
 5686SOL     OW27391   1.190   5.628   1.425
 5686SOL    HW127392   1.182   5.698   1.355
 5686SOL    HW227393   1.256   5.558   1.397
 5687SOL     OW27394   2.025   0.628   1.046
 5687SOL    HW127395   2.101   0.572   1.012
 5687SOL    HW227396   1.942   0.603   0.997
 5688SOL     OW27397   0.983   7.485   1.779
 5688SOL    HW127398   0.969   7.398   1.826
 5688SOL    HW227399   1.019   7.552   1.844
 5689SOL     OW27400   7.365   0.877   2.959
 5689SOL    HW127401   7.314   0.791   2.958
 5689SOL    HW227402   7.444   0.869   2.898
 5690SOL     OW27403   4.487   8.892   2.354
 5690SOL    HW127404   4.400   8.843   2.349
 5690SOL    HW227405   4.561   8.828   2.373
 5691SOL     OW27406   2.592   0.709   2.457
 5691SOL    HW127407   2.600   0.809   2.461
 5691SOL    HW227408   2.599   0.671   2.549
 5692SOL     OW27409   4.263   1.057   1.361
 5692SOL    HW127410   4.198   1.050   1.285
 5692SOL    HW227411   4.302   0.967   1.379
 5693SOL     OW27412   2.762   6.122   3.001
 5693SOL    HW127413   2.804   6.051   3.057
 5693SOL    HW227414   2.821   6.141   2.922
 5694SOL     OW27415   9.173   0.646   0.182
 5694SOL    HW127416   9.107   0.721   0.188
 5694SOL    HW227417   9.265   0.679   0.205
 5695SOL     OW27418   2.393   4.762   2.055
 5695SOL    HW127419   2.428   4.803   2.140
 5695SOL    HW227420   2.425   4.668   2.048
 5696SOL     OW27421   3.113   3.093   2.483
 5696SOL    HW127422   3.162   3.006   2.474
 5696SOL    HW227423   3.061   3.094   2.568
 5697SOL     OW27424   9.332   3.036   2.083
 5697SOL    HW127425   9.276   3.043   2.000
 5697SOL    HW227426   9.315   2.948   2.127
 5698SOL     OW27427   3.619   8.778   3.079
 5698SOL    HW127428   3.605   8.729   3.165
 5698SOL    HW227429   3.716   8.804   3.071
 5699SOL     OW27430   9.989   5.958   1.682
 5699SOL    HW127431   0.034   5.870   1.694
 5699SOL    HW227432   9.890   5.944   1.669
 5700SOL     OW27433   3.137   8.831   0.680
 5700SOL    HW127434   3.048   8.816   0.638
 5700SOL    HW227435   3.164   8.927   0.670
 5701SOL     OW27436   4.499   7.396   3.117
 5701SOL    HW127437   4.525   7.376   3.022
 5701SOL    HW227438   4.552   7.338   3.179
 5702SOL     OW27439   2.310   8.203   0.734
 5702SOL    HW127440   2.297   8.118   0.785
 5702SOL    HW227441   2.343   8.274   0.797
 5703SOL     OW27442   9.185   2.541   2.126
 5703SOL    HW127443   9.121   2.545   2.203
 5703SOL    HW227444   9.222   2.448   2.119
 5704SOL     OW27445   3.365   7.829   3.108
 5704SOL    HW127446   3.458   7.863   3.102
 5704SOL    HW227447   3.363   7.732   3.084
 5705SOL     OW27448   0.011   1.902   1.919
 5705SOL    HW127449   0.051   1.816   1.887
 5705SOL    HW227450   9.918   1.912   1.883
 5706SOL     OW27451   9.200   9.068   0.400
 5706SOL    HW127452   9.166   9.107   0.314
 5706SOL    HW227453   9.131   9.006   0.438
 5707SOL     OW27454   7.837   9.341   0.495
 5707SOL    HW127455   7.774   9.417   0.483
 5707SOL    HW227456   7.931   9.373   0.482
 5708SOL     OW27457   0.868   7.390   1.236
 5708SOL    HW127458   0.923   7.317   1.276
 5708SOL    HW227459   0.811   7.353   1.163
 5709SOL     OW27460   1.094   0.631   2.821
 5709SOL    HW127461   1.015   0.679   2.860
 5709SOL    HW227462   1.063   0.545   2.779
 5710SOL     OW27463   8.112   8.294   0.366
 5710SOL    HW127464   8.044   8.306   0.293
 5710SOL    HW227465   8.086   8.349   0.445
 5711SOL     OW27466   9.328   4.627   1.492
 5711SOL    HW127467   9.314   4.528   1.486
 5711SOL    HW227468   9.386   4.657   1.416
 5712SOL     OW27469   1.020   0.003   1.908
 5712SOL    HW127470   1.079   9.928   1.939
 5712SOL    HW227471   1.074   0.087   1.901
 5713SOL     OW27472   9.568   9.828   0.849
 5713SOL    HW127473   9.581   9.775   0.933
 5713SOL    HW227474   9.551   9.765   0.773
 5714SOL     OW27475   8.501   9.645   1.361
 5714SOL    HW127476   8.541   9.716   1.420
 5714SOL    HW227477   8.536   9.556   1.387
 5715SOL     OW27478   0.264   4.298   0.512
 5715SOL    HW127479   0.264   4.325   0.416
 5715SOL    HW227480   0.242   4.201   0.520
 5716SOL     OW27481   2.027   5.433   0.496
 5716SOL    HW127482   2.106   5.492   0.480
 5716SOL    HW227483   1.961   5.481   0.554
 5717SOL     OW27484   3.231   9.835   1.448
 5717SOL    HW127485   3.327   9.806   1.449
 5717SOL    HW227486   3.214   9.896   1.526
 5718SOL     OW27487   0.643   5.762   2.918
 5718SOL    HW127488   0.684   5.847   2.885
 5718SOL    HW227489   0.548   5.778   2.944
 5719SOL     OW27490   6.356   9.687   1.963
 5719SOL    HW127491   6.392   9.699   1.871
 5719SOL    HW227492   6.408   9.745   2.027
 5720SOL     OW27493   0.973   0.284   0.054
 5720SOL    HW127494   1.037   0.326   4.031
 5720SOL    HW227495   1.013   0.198   0.088
 5721SOL     OW27496   2.761   6.699   0.873
 5721SOL    HW127497   2.764   6.648   0.958
 5721SOL    HW227498   2.853   6.728   0.847
 5722SOL     OW27499   2.205   3.912   1.462
 5722SOL    HW127500   2.228   3.815   1.450
 5722SOL    HW227501   2.174   3.949   1.374
 5723SOL     OW27502   9.812   4.618   0.422
 5723SOL    HW127503   9.892   4.562   0.400
 5723SOL    HW227504   9.759   4.574   0.494
 5724SOL     OW27505   9.062   0.211   2.938
 5724SOL    HW127506   9.056   0.121   2.895
 5724SOL    HW227507   9.075   0.280   2.867
 5725SOL     OW27508   8.344   5.219   1.248
 5725SOL    HW127509   8.283   5.179   1.180
 5725SOL    HW227510   8.355   5.317   1.230
 5726SOL     OW27511   2.033   8.079   0.966
 5726SOL    HW127512   1.978   7.999   0.993
 5726SOL    HW227513   1.973   8.147   0.923
 5727SOL     OW27514   4.435   2.586   0.824
 5727SOL    HW127515   4.416   2.561   0.730
 5727SOL    HW227516   4.431   2.686   0.834
 5728SOL     OW27517   9.981   2.631   1.204
 5728SOL    HW127518   0.080   2.615   1.203
 5728SOL    HW227519   9.951   2.654   1.296
 5729SOL     OW27520   8.449   8.242   1.142
 5729SOL    HW127521   8.519   8.174   1.125
 5729SOL    HW227522   8.412   8.274   1.055
 5730SOL     OW27523   3.263   2.640   0.087
 5730SOL    HW127524   3.265   2.559   0.145
 5730SOL    HW227525   3.278   2.722   0.143
 5731SOL     OW27526   2.784   1.649   2.903
 5731SOL    HW127527   2.714   1.720   2.907
 5731SOL    HW227528   2.844   1.657   2.983
 5732SOL     OW27529   1.340   9.579   2.000
 5732SOL    HW127530   1.423   9.532   1.969
 5732SOL    HW227531   1.303   9.531   2.079
 5733SOL     OW27532   0.889   5.393   2.574
 5733SOL    HW127533   0.887   5.365   2.670
 5733SOL    HW227534   0.802   5.438   2.551
 5734SOL     OW27535   0.518   9.467   1.696
 5734SOL    HW127536   0.560   9.514   1.618
 5734SOL    HW227537   0.427   9.505   1.712
 5735SOL     OW27538   1.546   0.177   2.999
 5735SOL    HW127539   1.529   0.270   2.967
 5735SOL    HW227540   1.576   0.179   3.094
 5736SOL     OW27541   9.272   5.503   2.419
 5736SOL    HW127542   9.275   5.426   2.482
 5736SOL    HW227543   9.191   5.559   2.438
 5737SOL     OW27544   2.321   1.571   0.722
 5737SOL    HW127545   2.330   1.533   0.630
 5737SOL    HW227546   2.228   1.603   0.736
 5738SOL     OW27547   1.725   9.776   2.527
 5738SOL    HW127548   1.663   9.740   2.597
 5738SOL    HW227549   1.797   9.709   2.509
 5739SOL     OW27550   3.705   2.523   2.901
 5739SOL    HW127551   3.713   2.596   2.833
 5739SOL    HW227552   3.787   2.467   2.899
 5740SOL     OW27553   2.771   9.919   1.387
 5740SOL    HW127554   2.792   9.841   1.328
 5740SOL    HW227555   2.838   9.992   1.371
 5741SOL     OW27556   2.263   5.884   0.517
 5741SOL    HW127557   2.242   5.904   0.613
 5741SOL    HW227558   2.344   5.936   0.489
 5742SOL     OW27559   4.031   3.284   1.810
 5742SOL    HW127560   3.991   3.229   1.737
 5742SOL    HW227561   4.017   3.239   1.898
 5743SOL     OW27562   0.484   9.160   2.979
 5743SOL    HW127563   0.569   9.116   2.949
 5743SOL    HW227564   0.415   9.091   2.998
 5744SOL     OW27565   3.194   4.475   1.180
 5744SOL    HW127566   3.195   4.559   1.233
 5744SOL    HW227567   3.186   4.496   1.082
 5745SOL     OW27568   4.481   3.051   0.995
 5745SOL    HW127569   4.459   3.088   1.085
 5745SOL    HW227570   4.557   3.103   0.956
 5746SOL     OW27571   9.786   1.814   0.984
 5746SOL    HW127572   9.752   1.724   0.955
 5746SOL    HW227573   9.841   1.803   1.066
 5747SOL     OW27574   5.778   7.358   2.503
 5747SOL    HW127575   5.832   7.399   2.429
 5747SOL    HW227576   5.734   7.431   2.556
 5748SOL     OW27577   1.822   0.956   1.768
 5748SOL    HW127578   1.921   0.956   1.757
 5748SOL    HW227579   1.792   1.046   1.801
 5749SOL     OW27580   5.155   8.866   2.899
 5749SOL    HW127581   5.199   8.789   2.945
 5749SOL    HW227582   5.224   8.925   2.858
 5750SOL     OW27583   9.059   5.837   2.238
 5750SOL    HW127584   9.141   5.848   2.181
 5750SOL    HW227585   9.018   5.927   2.253
 5751SOL     OW27586   2.941   4.367   0.861
 5751SOL    HW127587   3.003   4.314   0.804
 5751SOL    HW227588   2.846   4.349   0.834
 5752SOL     OW27589   3.821   3.580   0.988
 5752SOL    HW127590   3.766   3.506   0.949
 5752SOL    HW227591   3.766   3.632   1.053
 5753SOL     OW27592   2.833   9.316   0.326
 5753SOL    HW127593   2.840   9.231   0.275
 5753SOL    HW227594   2.736   9.338   0.342
 5754SOL     OW27595   9.744   0.258   2.702
 5754SOL    HW127596   9.734   0.173   2.754
 5754SOL    HW227597   9.764   0.237   2.606
 5755SOL     OW27598   0.684   0.451   0.910
 5755SOL    HW127599   0.757   0.417   0.851
 5755SOL    HW227600   0.706   0.432   1.005
 5756SOL     OW27601   9.507   6.919   0.942
 5756SOL    HW127602   9.432   6.859   0.916
 5756SOL    HW227603   9.523   6.911   1.041
 5757SOL     OW27604   3.885   0.722   2.313
 5757SOL    HW127605   3.905   0.797   2.376
 5757SOL    HW227606   3.808   0.668   2.348
 5758SOL     OW27607   1.152   0.751   3.117
 5758SOL    HW127608   1.182   0.659   3.095
 5758SOL    HW227609   1.231   0.812   3.122
 5759SOL     OW27610   3.249   4.000   1.176
 5759SOL    HW127611   3.194   4.080   1.201
 5759SOL    HW227612   3.202   3.917   1.207
 5760SOL     OW27613   8.291   2.792   2.157
 5760SOL    HW127614   8.251   2.837   2.077
 5760SOL    HW227615   8.359   2.853   2.199
 5761SOL     OW27616   1.636   2.185   0.288
 5761SOL    HW127617   1.542   2.216   0.271
 5761SOL    HW227618   1.650   2.174   0.386
 5762SOL     OW27619   2.239   9.285   1.307
 5762SOL    HW127620   2.162   9.222   1.296
 5762SOL    HW227621   2.207   9.379   1.291
 5763SOL     OW27622   3.671   7.277   1.393
 5763SOL    HW127623   3.587   7.225   1.403
 5763SOL    HW227624   3.649   7.374   1.385
 5764SOL     OW27625   7.595   1.355   0.368
 5764SOL    HW127626   7.649   1.433   0.401
 5764SOL    HW227627   7.654   1.275   0.360
 5765SOL     OW27628   0.096   4.809   3.140
 5765SOL    HW127629   0.042   4.816   3.224
 5765SOL    HW227630   0.053   4.862   3.068
 5766SOL     OW27631   2.494   6.079   3.051
 5766SOL    HW127632   2.593   6.087   3.039
 5766SOL    HW227633   2.456   6.025   2.976
 5767SOL     OW27634   5.578   1.283   2.113
 5767SOL    HW127635   5.586   1.225   2.032
 5767SOL    HW227636   5.669   1.312   2.142
 5768SOL     OW27637   9.568   3.162   2.128
 5768SOL    HW127638   9.478   3.122   2.112
 5768SOL    HW227639   9.628   3.142   2.051
 5769SOL     OW27640   8.180   7.884   0.574
 5769SOL    HW127641   8.262   7.899   0.519
 5769SOL    HW227642   8.189   7.931   0.662
 5770SOL     OW27643   1.411   9.674   0.900
 5770SOL    HW127644   1.436   9.606   0.969
 5770SOL    HW227645   1.468   9.662   0.819
 5771SOL     OW27646   3.168   9.613   2.059
 5771SOL    HW127647   3.235   9.570   2.120
 5771SOL    HW227648   3.205   9.615   1.966
 5772SOL     OW27649   8.045   8.894   0.880
 5772SOL    HW127650   8.072   8.916   0.786
 5772SOL    HW227651   7.953   8.854   0.880
 5773SOL     OW27652   8.012   9.841   1.327
 5773SOL    HW127653   8.039   9.868   1.419
 5773SOL    HW227654   7.914   9.822   1.325
 5774SOL     OW27655   0.385   8.341   2.568
 5774SOL    HW127656   0.300   8.295   2.594
 5774SOL    HW227657   0.463   8.289   2.602
 5775SOL     OW27658   1.693   6.445   0.382
 5775SOL    HW127659   1.764   6.485   0.324
 5775SOL    HW227660   1.633   6.387   0.327
 5776SOL     OW27661   8.664   1.449   2.563
 5776SOL    HW127662   8.658   1.371   2.626
 5776SOL    HW227663   8.646   1.418   2.470
 5777SOL     OW27664   2.380   7.804   2.926
 5777SOL    HW127665   2.405   7.740   2.854
 5777SOL    HW227666   2.296   7.774   2.971
 5778SOL     OW27667   3.532   0.685   2.137
 5778SOL    HW127668   3.513   0.642   2.226
 5778SOL    HW227669   3.458   0.663   2.073
 5779SOL     OW27670   1.979   4.746   2.257
 5779SOL    HW127671   1.999   4.661   2.209
 5779SOL    HW227672   1.896   4.787   2.220
 5780SOL     OW27673   4.058   9.843   1.724
 5780SOL    HW127674   4.134   9.784   1.753
 5780SOL    HW227675   4.071   9.935   1.761
 5781SOL     OW27676   9.843   3.105   1.548
 5781SOL    HW127677   9.749   3.138   1.543
 5781SOL    HW227678   9.896   3.163   1.609
 5782SOL     OW27679   7.957   5.023   0.174
 5782SOL    HW127680   7.981   5.074   0.257
 5782SOL    HW227681   8.032   4.960   0.152
 5783SOL     OW27682   1.330   4.602   2.302
 5783SOL    HW127683   1.296   4.631   2.391
 5783SOL    HW227684   1.253   4.593   2.238
 5784SOL     OW27685   9.816   7.532   1.100
 5784SOL    HW127686   9.724   7.541   1.138
 5784SOL    HW227687   9.821   7.580   1.013
 5785SOL     OW27688   1.065   9.466   0.880
 5785SOL    HW127689   1.058   9.535   0.952
 5785SOL    HW227690   1.104   9.381   0.918
 5786SOL     OW27691   4.452   7.365   1.160
 5786SOL    HW127692   4.401   7.374   1.246
 5786SOL    HW227693   4.549   7.382   1.177
 5787SOL     OW27694   1.801   6.812   1.541
 5787SOL    HW127695   1.756   6.898   1.518
 5787SOL    HW227696   1.859   6.825   1.622
 5788SOL     OW27697   9.262   2.597   1.215
 5788SOL    HW127698   9.237   2.540   1.137
 5788SOL    HW227699   9.209   2.681   1.215
 5789SOL     OW27700   0.257   1.455   2.173
 5789SOL    HW127701   0.227   1.364   2.143
 5789SOL    HW227702   0.181   1.503   2.217
 5790SOL     OW27703   9.680   2.883   0.823
 5790SOL    HW127704   9.706   2.837   0.738
 5790SOL    HW227705   9.715   2.831   0.901
 5791SOL     OW27706   9.451   2.914   0.656
 5791SOL    HW127707   9.430   3.006   0.622
 5791SOL    HW227708   9.526   2.919   0.722
 5792SOL     OW27709   9.271   7.416   1.791
 5792SOL    HW127710   9.262   7.338   1.853
 5792SOL    HW227711   9.367   7.429   1.768
 5793SOL     OW27712   7.519   2.509   0.396
 5793SOL    HW127713   7.546   2.413   0.402
 5793SOL    HW227714   7.569   2.554   0.322
 5794SOL     OW27715   3.626   4.437   1.824
 5794SOL    HW127716   3.668   4.510   1.769
 5794SOL    HW227717   3.614   4.469   1.918
 5795SOL     OW27718   8.980   1.025   0.093
 5795SOL    HW127719   8.950   0.939   0.135
 5795SOL    HW227720   8.956   1.024   4.036
 5796SOL     OW27721   2.074   2.004   0.249
 5796SOL    HW127722   1.989   2.008   0.197
 5796SOL    HW227723   2.060   2.044   0.339
 5797SOL     OW27724   2.187   7.062   0.376
 5797SOL    HW127725   2.285   7.043   0.384
 5797SOL    HW227726   2.146   7.065   0.467
 5798SOL     OW27727   2.572   5.705   1.287
 5798SOL    HW127728   2.520   5.751   1.359
 5798SOL    HW227729   2.534   5.728   1.197
 5799SOL     OW27730   0.744   5.046   2.439
 5799SOL    HW127731   0.664   5.053   2.498
 5799SOL    HW227732   0.723   5.089   2.351
 5800SOL     OW27733   3.145   0.267   1.235
 5800SOL    HW127734   3.130   0.291   1.139
 5800SOL    HW227735   3.152   0.350   1.290
 5801SOL     OW27736   2.695   4.417   1.300
 5801SOL    HW127737   2.774   4.410   1.239
 5801SOL    HW227738   2.653   4.327   1.310
 5802SOL     OW27739   1.715   9.680   3.120
 5802SOL    HW127740   1.700   9.768   3.075
 5802SOL    HW227741   1.638   9.619   3.100
 5803SOL     OW27742   3.455   0.970   0.665
 5803SOL    HW127743   3.376   1.001   0.718
 5803SOL    HW227744   3.444   0.997   0.570
 5804SOL     OW27745   2.763   5.950   2.095
 5804SOL    HW127746   2.789   6.034   2.142
 5804SOL    HW227747   2.677   5.916   2.133
 5805SOL     OW27748   2.982   6.185   2.457
 5805SOL    HW127749   3.044   6.257   2.424
 5805SOL    HW227750   3.035   6.109   2.493
 5806SOL     OW27751   4.592   0.003   3.022
 5806SOL    HW127752   4.498   0.038   3.025
 5806SOL    HW227753   4.656   0.077   3.040
 5807SOL     OW27754   3.552   7.225   0.954
 5807SOL    HW127755   3.496   7.143   0.942
 5807SOL    HW227756   3.492   7.305   0.955
 5808SOL     OW27757   9.122   6.428   1.336
 5808SOL    HW127758   9.211   6.384   1.322
 5808SOL    HW227759   9.053   6.384   1.280
 5809SOL     OW27760   4.094   5.149   3.101
 5809SOL    HW127761   4.023   5.220   3.101
 5809SOL    HW227762   4.063   5.072   3.158
 5810SOL     OW27763   0.186   8.381   1.435
 5810SOL    HW127764   0.275   8.346   1.465
 5810SOL    HW227765   0.123   8.382   1.512
 5811SOL     OW27766   8.662   1.242   2.987
 5811SOL    HW127767   8.693   1.148   2.980
 5811SOL    HW227768   8.580   1.246   3.044
 5812SOL     OW27769   9.526   5.053   0.787
 5812SOL    HW127770   9.604   5.052   0.849
 5812SOL    HW227771   9.443   5.029   0.838
 5813SOL     OW27772   8.805   7.868   1.201
 5813SOL    HW127773   8.901   7.896   1.200
 5813SOL    HW227774   8.795   7.787   1.258
 5814SOL     OW27775   0.578   1.117   1.841
 5814SOL    HW127776   0.560   1.161   1.929
 5814SOL    HW227777   0.557   1.019   1.848
 5815SOL     OW27778   2.720   5.244   2.595
 5815SOL    HW127779   2.805   5.250   2.542
 5815SOL    HW227780   2.652   5.193   2.544
 5816SOL     OW27781   7.923   8.774   1.611
 5816SOL    HW127782   7.915   8.853   1.672
 5816SOL    HW227783   7.986   8.797   1.536
 5817SOL     OW27784   0.287   6.425   0.126
 5817SOL    HW127785   0.239   6.512   0.117
 5817SOL    HW227786   0.370   6.439   0.180
 5818SOL     OW27787   0.610   5.835   1.742
 5818SOL    HW127788   0.630   5.922   1.696
 5818SOL    HW227789   0.514   5.813   1.730
 5819SOL     OW27790   7.542   3.170   0.216
 5819SOL    HW127791   7.482   3.090   0.208
 5819SOL    HW227792   7.584   3.189   0.127
 5820SOL     OW27793   9.905   6.103   1.139
 5820SOL    HW127794   9.897   6.004   1.130
 5820SOL    HW227795   9.827   6.146   1.095
 5821SOL     OW27796   4.048   8.586   0.220
 5821SOL    HW127797   4.121   8.653   0.229
 5821SOL    HW227798   3.960   8.633   0.211
 5822SOL     OW27799   3.284   8.811   1.849
 5822SOL    HW127800   3.343   8.828   1.928
 5822SOL    HW227801   3.330   8.748   1.786
 5823SOL     OW27802   0.149   7.204   1.245
 5823SOL    HW127803   0.212   7.281   1.255
 5823SOL    HW227804   0.184   7.141   1.175
 5824SOL     OW27805   8.354   1.378   1.883
 5824SOL    HW127806   8.311   1.333   1.805
 5824SOL    HW227807   8.311   1.466   1.899
 5825SOL     OW27808   7.320   9.758   2.944
 5825SOL    HW127809   7.395   9.752   3.010
 5825SOL    HW227810   7.277   9.848   2.951
 5826SOL     OW27811   2.496   5.759   0.197
 5826SOL    HW127812   2.547   5.844   0.207
 5826SOL    HW227813   2.557   5.682   0.209
 5827SOL     OW27814   0.761   5.661   1.353
 5827SOL    HW127815   0.747   5.731   1.282
 5827SOL    HW227816   0.832   5.598   1.323
 5828SOL     OW27817   9.054   5.682   0.588
 5828SOL    HW127818   9.083   5.767   0.632
 5828SOL    HW227819   9.006   5.625   0.655
 5829SOL     OW27820   0.659   0.585   1.370
 5829SOL    HW127821   0.593   0.534   1.425
 5829SOL    HW227822   0.692   0.528   1.296
 5830SOL     OW27823   3.364   4.383   2.115
 5830SOL    HW127824   3.335   4.314   2.048
 5830SOL    HW227825   3.386   4.337   2.201
 5831SOL     OW27826   0.079   6.892   2.775
 5831SOL    HW127827   0.084   6.886   2.875
 5831SOL    HW227828   0.035   6.978   2.750
 5832SOL     OW27829   8.921   4.034   2.121
 5832SOL    HW127830   8.859   3.958   2.140
 5832SOL    HW227831   8.873   4.105   2.070
 5833SOL     OW27832   2.291   8.539   0.196
 5833SOL    HW127833   2.268   8.474   0.123
 5833SOL    HW227834   2.207   8.581   0.230
 5834SOL     OW27835   1.092   5.743   1.653
 5834SOL    HW127836   1.132   5.694   1.575
 5834SOL    HW227837   0.995   5.761   1.635
 5835SOL     OW27838   9.995   0.661   2.903
 5835SOL    HW127839   9.955   0.570   2.896
 5835SOL    HW227840   9.934   0.720   2.956
 5836SOL     OW27841   2.869   2.219   2.933
 5836SOL    HW127842   2.947   2.258   2.982
 5836SOL    HW227843   2.871   2.120   2.941
 5837SOL     OW27844   2.743   7.452   2.451
 5837SOL    HW127845   2.770   7.545   2.476
 5837SOL    HW227846   2.705   7.406   2.532
 5838SOL     OW27847   3.280   9.145   2.536
 5838SOL    HW127848   3.349   9.097   2.591
 5838SOL    HW227849   3.317   9.160   2.444
 5839SOL     OW27850   2.883   5.658   3.022
 5839SOL    HW127851   2.822   5.585   3.053
 5839SOL    HW227852   2.964   5.617   2.980
 5840SOL     OW27853   7.217   9.001   0.676
 5840SOL    HW127854   7.252   8.985   0.584
 5840SOL    HW227855   7.271   8.947   0.741
 5841SOL     OW27856   9.505   2.728   2.342
 5841SOL    HW127857   9.505   2.650   2.280
 5841SOL    HW227858   9.594   2.732   2.389
 5842SOL     OW27859   1.453   3.263   2.443
 5842SOL    HW127860   1.525   3.294   2.505
 5842SOL    HW227861   1.375   3.229   2.495
 5843SOL     OW27862   9.597   7.739   0.574
 5843SOL    HW127863   9.606   7.736   0.474
 5843SOL    HW227864   9.680   7.777   0.614
 5844SOL     OW27865   1.761   2.422   0.630
 5844SOL    HW127866   1.702   2.499   0.657
 5844SOL    HW227867   1.783   2.431   0.533
 5845SOL     OW27868   3.919   3.121   1.621
 5845SOL    HW127869   3.936   3.111   1.523
 5845SOL    HW227870   3.908   3.031   1.663
 5846SOL     OW27871   8.109   6.472   0.406
 5846SOL    HW127872   8.076   6.378   0.392
 5846SOL    HW227873   8.058   6.534   0.347
 5847SOL     OW27874   2.629   7.930   1.080
 5847SOL    HW127875   2.650   8.017   1.037
 5847SOL    HW227876   2.657   7.933   1.176
 5848SOL     OW27877   3.594   1.542   1.628
 5848SOL    HW127878   3.684   1.573   1.598
 5848SOL    HW227879   3.603   1.458   1.682
 5849SOL     OW27880   1.871   7.842   0.764
 5849SOL    HW127881   1.872   7.868   0.860
 5849SOL    HW227882   1.959   7.802   0.739
 5850SOL     OW27883   7.779   5.212   0.084
 5850SOL    HW127884   7.709   5.158   0.036
 5850SOL    HW227885   7.852   5.151   0.115
 5851SOL     OW27886   2.538   3.707   0.190
 5851SOL    HW127887   2.608   3.776   0.210
 5851SOL    HW227888   2.583   3.619   0.173
 5852SOL     OW27889   6.280   9.973   2.581
 5852SOL    HW127890   6.278   9.927   2.669
 5852SOL    HW227891   6.337   9.922   2.517
 5853SOL     OW27892   4.560   2.835   2.125
 5853SOL    HW127893   4.514   2.748   2.140
 5853SOL    HW227894   4.607   2.834   2.037
 5854SOL     OW27895   3.875   8.874   3.041
 5854SOL    HW127896   3.887   8.958   3.093
 5854SOL    HW227897   3.926   8.880   2.956
 5855SOL     OW27898   9.737   7.968   2.590
 5855SOL    HW127899   9.700   8.022   2.666
 5855SOL    HW227900   9.697   8.001   2.504
 5856SOL     OW27901   9.584   6.461   1.361
 5856SOL    HW127902   9.577   6.519   1.279
 5856SOL    HW227903   9.657   6.495   1.419
 5857SOL     OW27904   0.725   9.217   0.699
 5857SOL    HW127905   0.763   9.129   0.725
 5857SOL    HW227906   0.683   9.209   0.608
 5858SOL     OW27907   4.213   1.616   0.393
 5858SOL    HW127908   4.249   1.549   0.457
 5858SOL    HW227909   4.237   1.708   0.424
 5859SOL     OW27910   0.078   1.932   1.550
 5859SOL    HW127911   0.081   1.832   1.551
 5859SOL    HW227912   0.169   1.967   1.526
 5860SOL     OW27913   2.752   6.440   2.295
 5860SOL    HW127914   2.822   6.466   2.361
 5860SOL    HW227915   2.725   6.520   2.242
 5861SOL     OW27916   0.128   3.044   1.797
 5861SOL    HW127917   0.152   3.014   1.704
 5861SOL    HW227918   0.050   2.990   1.830
 5862SOL     OW27919   3.484   0.603   1.723
 5862SOL    HW127920   3.575   0.634   1.694
 5862SOL    HW227921   3.431   0.578   1.642
 5863SOL     OW27922   3.806   8.755   0.252
 5863SOL    HW127923   3.731   8.821   0.246
 5863SOL    HW227924   3.878   8.791   0.311
 5864SOL     OW27925   2.515   2.840   2.959
 5864SOL    HW127926   2.455   2.901   3.012
 5864SOL    HW227927   2.489   2.843   2.863
 5865SOL     OW27928   5.862   8.075   2.581
 5865SOL    HW127929   5.909   8.030   2.505
 5865SOL    HW227930   5.898   8.041   2.667
 5866SOL     OW27931   2.510   3.219   1.199
 5866SOL    HW127932   2.522   3.121   1.183
 5866SOL    HW227933   2.495   3.265   1.112
 5867SOL     OW27934   3.112   6.798   0.411
 5867SOL    HW127935   3.028   6.756   0.447
 5867SOL    HW227936   3.143   6.869   0.475
 5868SOL     OW27937   2.557   7.806   2.085
 5868SOL    HW127938   2.532   7.824   2.180
 5868SOL    HW227939   2.481   7.833   2.025
 5869SOL     OW27940   8.139   1.218   0.244
 5869SOL    HW127941   8.120   1.139   0.186
 5869SOL    HW227942   8.089   1.210   0.330
 5870SOL     OW27943   8.475   0.906   2.395
 5870SOL    HW127944   8.566   0.884   2.360
 5870SOL    HW227945   8.408   0.844   2.355
 5871SOL     OW27946   0.687   7.157   1.867
 5871SOL    HW127947   0.628   7.222   1.915
 5871SOL    HW227948   0.782   7.186   1.874
 5872SOL     OW27949   2.853   1.393   2.077
 5872SOL    HW127950   2.840   1.294   2.080
 5872SOL    HW227951   2.787   1.433   2.013
 5873SOL     OW27952   0.972   4.511   1.492
 5873SOL    HW127953   0.882   4.468   1.488
 5873SOL    HW227954   1.042   4.442   1.513
 5874SOL     OW27955   8.874   8.304   0.691
 5874SOL    HW127956   8.913   8.245   0.761
 5874SOL    HW227957   8.946   8.333   0.628
 5875SOL     OW27958   9.784   4.091   2.850
 5875SOL    HW127959   9.722   4.131   2.784
 5875SOL    HW227960   9.877   4.123   2.832
 5876SOL     OW27961   9.396   2.004   0.807
 5876SOL    HW127962   9.337   2.071   0.762
 5876SOL    HW227963   9.397   1.920   0.754
 5877SOL     OW27964   1.886   3.599   1.435
 5877SOL    HW127965   1.901   3.512   1.388
 5877SOL    HW227966   1.874   3.583   1.532
 5878SOL     OW27967   4.173   0.171   1.592
 5878SOL    HW127968   4.164   0.136   1.685
 5878SOL    HW227969   4.087   0.159   1.543
 5879SOL     OW27970   5.155   9.963   2.894
 5879SOL    HW127971   5.254   9.972   2.883
 5879SOL    HW227972   5.135   9.907   2.974
 5880SOL     OW27973   3.065   9.848   0.596
 5880SOL    HW127974   3.011   9.900   0.530
 5880SOL    HW227975   3.160   9.880   0.593
 5881SOL     OW27976   2.792   3.366   0.687
 5881SOL    HW127977   2.825   3.341   0.596
 5881SOL    HW227978   2.836   3.452   0.715
 5882SOL     OW27979   2.891   3.984   0.060
 5882SOL    HW127980   2.956   4.000   0.134
 5882SOL    HW227981   2.940   3.952   4.019
 5883SOL     OW27982   9.212   9.918   0.201
 5883SOL    HW127983   9.148   9.855   0.245
 5883SOL    HW227984   9.166   0.005   0.184
 5884SOL     OW27985   0.707   6.917   2.834
 5884SOL    HW127986   0.713   6.827   2.876
 5884SOL    HW227987   0.772   6.923   2.758
 5885SOL     OW27988   3.307   5.399   2.893
 5885SOL    HW127989   3.363   5.343   2.954
 5885SOL    HW227990   3.251   5.340   2.835
 5886SOL     OW27991   3.706   1.472   1.049
 5886SOL    HW127992   3.706   1.550   0.986
 5886SOL    HW227993   3.732   1.389   0.999
 5887SOL     OW27994   0.983   9.129   2.130
 5887SOL    HW127995   1.001   9.031   2.142
 5887SOL    HW227996   1.069   9.177   2.114
 5888SOL     OW27997   8.915   0.066   0.429
 5888SOL    HW127998   8.881   9.990   0.484
 5888SOL    HW227999   9.014   0.076   0.443
 5889SOL     OW28000   1.467   3.138   1.487
 5889SOL    HW128001   1.484   3.067   1.555
 5889SOL    HW228002   1.383   3.117   1.437
 5890SOL     OW28003   4.846   9.532   1.994
 5890SOL    HW128004   4.901   9.482   1.927
 5890SOL    HW228005   4.750   9.511   1.981
 5891SOL     OW28006   9.976   1.132   1.022
 5891SOL    HW128007   9.964   1.139   1.121
 5891SOL    HW228008   0.072   1.116   1.001
 5892SOL     OW28009   8.669   9.537   2.426
 5892SOL    HW128010   8.733   9.484   2.371
 5892SOL    HW228011   8.717   9.615   2.467
 5893SOL     OW28012   7.671   2.168   2.139
 5893SOL    HW128013   7.746   2.218   2.096
 5893SOL    HW228014   7.584   2.205   2.106
 5894SOL     OW28015   0.441   5.789   2.225
 5894SOL    HW128016   0.468   5.873   2.177
 5894SOL    HW228017   0.493   5.712   2.189
 5895SOL     OW28018   5.178   3.422   1.193
 5895SOL    HW128019   5.108   3.352   1.205
 5895SOL    HW228020   5.261   3.381   1.155
 5896SOL     OW28021   2.808   5.121   2.830
 5896SOL    HW128022   2.781   5.166   2.745
 5896SOL    HW228023   2.895   5.073   2.816
 5897SOL     OW28024   2.737   8.841   1.156
 5897SOL    HW128025   2.735   8.874   1.250
 5897SOL    HW228026   2.822   8.790   1.140
 5898SOL     OW28027   8.993   3.635   2.978
 5898SOL    HW128028   8.895   3.614   2.979
 5898SOL    HW228029   9.005   3.733   2.992
 5899SOL     OW28030   3.684   9.649   0.840
 5899SOL    HW128031   3.592   9.686   0.850
 5899SOL    HW228032   3.705   9.591   0.919
 5900SOL     OW28033   9.564   0.051   0.212
 5900SOL    HW128034   9.621   0.107   0.151
 5900SOL    HW228035   9.472   0.044   0.174
 5901SOL     OW28036   8.453   9.436   2.051
 5901SOL    HW128037   8.413   9.396   2.134
 5901SOL    HW228038   8.476   9.363   1.987
 5902SOL     OW28039   2.452   9.608   1.576
 5902SOL    HW128040   2.465   9.547   1.498
 5902SOL    HW228041   2.539   9.621   1.623
 5903SOL     OW28042   4.643   0.755   0.234
 5903SOL    HW128043   4.663   0.846   0.198
 5903SOL    HW228044   4.704   0.688   0.191
 5904SOL     OW28045   1.402   9.108   1.687
 5904SOL    HW128046   1.316   9.138   1.728
 5904SOL    HW228047   1.479   9.142   1.741
 5905SOL     OW28048   0.730   5.055   0.272
 5905SOL    HW128049   0.766   5.008   0.353
 5905SOL    HW228050   0.762   5.150   0.273
 5906SOL     OW28051   4.393   8.299   0.484
 5906SOL    HW128052   4.306   8.254   0.503
 5906SOL    HW228053   4.413   8.295   0.386
 5907SOL     OW28054   4.512   3.482   1.099
 5907SOL    HW128055   4.592   3.443   1.145
 5907SOL    HW228056   4.536   3.573   1.064
 5908SOL     OW28057   0.521   0.243   0.551
 5908SOL    HW128058   0.584   0.165   0.558
 5908SOL    HW228059   0.437   0.214   0.505
 5909SOL     OW28060   8.103   1.370   2.175
 5909SOL    HW128061   8.092   1.270   2.180
 5909SOL    HW228062   8.014   1.412   2.156
 5910SOL     OW28063   3.535   1.347   2.043
 5910SOL    HW128064   3.572   1.319   2.131
 5910SOL    HW228065   3.474   1.425   2.055
 5911SOL     OW28066   1.428   7.176   0.463
 5911SOL    HW128067   1.333   7.146   0.458
 5911SOL    HW228068   1.481   7.130   0.391
 5912SOL     OW28069   8.538   8.753   1.488
 5912SOL    HW128070   8.484   8.812   1.548
 5912SOL    HW228071   8.502   8.760   1.394
 5913SOL     OW28072   0.233   3.532   1.025
 5913SOL    HW128073   0.172   3.494   0.956
 5913SOL    HW228074   0.193   3.617   1.062
 5914SOL     OW28075   1.293   2.138   1.578
 5914SOL    HW128076   1.251   2.085   1.652
 5914SOL    HW228077   1.296   2.083   1.495
 5915SOL     OW28078   4.132   0.542   0.145
 5915SOL    HW128079   4.068   0.595   0.200
 5915SOL    HW228080   4.223   0.583   0.152
 5916SOL     OW28081   8.545   8.878   3.134
 5916SOL    HW128082   8.509   8.797   3.180
 5916SOL    HW228083   8.476   8.912   3.070
 5917SOL     OW28084   0.639   1.561   2.878
 5917SOL    HW128085   0.564   1.626   2.892
 5917SOL    HW228086   0.693   1.588   2.798
 5918SOL     OW28087   9.142   1.874   1.808
 5918SOL    HW128088   9.093   1.839   1.728
 5918SOL    HW228089   9.171   1.798   1.866
 5919SOL     OW28090   1.595   1.720   3.069
 5919SOL    HW128091   1.524   1.658   3.034
 5919SOL    HW228092   1.618   1.787   2.999
 5920SOL     OW28093   4.763   2.824   0.864
 5920SOL    HW128094   4.695   2.818   0.937
 5920SOL    HW228095   4.768   2.737   0.815
 5921SOL     OW28096   2.173   7.681   1.626
 5921SOL    HW128097   2.121   7.622   1.688
 5921SOL    HW228098   2.124   7.767   1.612
 5922SOL     OW28099   6.350   8.043   2.432
 5922SOL    HW128100   6.324   7.947   2.441
 5922SOL    HW228101   6.307   8.082   2.350
 5923SOL     OW28102   2.500   0.275   1.434
 5923SOL    HW128103   2.420   0.325   1.400
 5923SOL    HW228104   2.581   0.304   1.384
 5924SOL     OW28105   9.651   0.628   2.933
 5924SOL    HW128106   9.700   0.711   2.959
 5924SOL    HW228107   9.556   0.634   2.964
 5925SOL     OW28108   2.864   2.712   0.228
 5925SOL    HW128109   2.772   2.723   0.190
 5925SOL    HW228110   2.919   2.656   0.166
 5926SOL     OW28111   2.119   6.369   0.667
 5926SOL    HW128112   2.087   6.436   0.734
 5926SOL    HW228113   2.105   6.405   0.575
 5927SOL     OW28114   0.201   7.998   0.823
 5927SOL    HW128115   0.160   8.039   0.742
 5927SOL    HW228116   0.233   7.906   0.802
 5928SOL     OW28117   0.772   1.656   1.405
 5928SOL    HW128118   0.712   1.631   1.328
 5928SOL    HW228119   0.757   1.752   1.429
 5929SOL     OW28120   2.815   4.059   1.654
 5929SOL    HW128121   2.812   4.136   1.718
 5929SOL    HW228122   2.893   4.070   1.592
 5930SOL     OW28123   0.825   4.930   0.495
 5930SOL    HW128124   0.762   4.917   0.572
 5930SOL    HW228125   0.911   4.967   0.529
 5931SOL     OW28126   9.406   9.639   1.939
 5931SOL    HW128127   9.386   9.661   2.034
 5931SOL    HW228128   9.420   9.724   1.888
 5932SOL     OW28129   9.421   3.901   2.445
 5932SOL    HW128130   9.516   3.889   2.472
 5932SOL    HW228131   9.371   3.947   2.519
 5933SOL     OW28132   5.142   9.339   2.546
 5933SOL    HW128133   5.187   9.275   2.484
 5933SOL    HW228134   5.208   9.376   2.611
 5934SOL     OW28135   1.660   3.175   0.058
 5934SOL    HW128136   1.668   3.275   0.051
 5934SOL    HW228137   1.589   3.153   0.125
 5935SOL     OW28138   1.440   9.048   0.510
 5935SOL    HW128139   1.473   9.057   0.604
 5935SOL    HW228140   1.453   8.954   0.479
 5936SOL     OW28141   9.823   0.782   1.229
 5936SOL    HW128142   9.767   0.848   1.180
 5936SOL    HW228143   9.766   0.706   1.260
 5937SOL     OW28144   0.363   5.693   0.526
 5937SOL    HW128145   0.271   5.704   0.564
 5937SOL    HW228146   0.365   5.728   0.432
 5938SOL     OW28147   8.515   6.305   0.783
 5938SOL    HW128148   8.439   6.243   0.801
 5938SOL    HW228149   8.561   6.280   0.698
 5939SOL     OW28150   8.102   7.415   2.827
 5939SOL    HW128151   8.126   7.415   2.924
 5939SOL    HW228152   8.084   7.508   2.797
 5940SOL     OW28153   8.757   7.009   1.927
 5940SOL    HW128154   8.691   7.032   1.854
 5940SOL    HW228155   8.772   6.911   1.927
 5941SOL     OW28156   2.000   4.793   1.352
 5941SOL    HW128157   1.956   4.812   1.440
 5941SOL    HW228158   1.962   4.709   1.314
 5942SOL     OW28159   8.712   8.632   1.901
 5942SOL    HW128160   8.693   8.590   1.990
 5942SOL    HW228161   8.763   8.567   1.844
 5943SOL     OW28162   7.563   0.206   0.664
 5943SOL    HW128163   7.486   0.239   0.718
 5943SOL    HW228164   7.646   0.254   0.691
 5944SOL     OW28165   2.179   6.430   1.886
 5944SOL    HW128166   2.152   6.341   1.849
 5944SOL    HW228167   2.278   6.430   1.903
 5945SOL     OW28168   2.323   5.656   2.557
 5945SOL    HW128169   2.280   5.726   2.501
 5945SOL    HW228170   2.258   5.623   2.625
 5946SOL     OW28171   5.691   8.714   1.804
 5946SOL    HW128172   5.710   8.807   1.836
 5946SOL    HW228173   5.592   8.697   1.807
 5947SOL     OW28174   2.417   7.501   2.498
 5947SOL    HW128175   2.444   7.419   2.447
 5947SOL    HW228176   2.365   7.562   2.437
 5948SOL     OW28177   3.562   4.825   1.869
 5948SOL    HW128178   3.562   4.925   1.882
 5948SOL    HW228179   3.637   4.800   1.808
 5949SOL     OW28180   8.415   2.472   2.653
 5949SOL    HW128181   8.400   2.480   2.752
 5949SOL    HW228182   8.328   2.471   2.606
 5950SOL     OW28183   4.063   2.027   2.063
 5950SOL    HW128184   4.140   2.083   2.093
 5950SOL    HW228185   4.056   2.032   1.963
 5951SOL     OW28186   3.904   7.590   0.456
 5951SOL    HW128187   3.878   7.541   0.373
 5951SOL    HW228188   3.852   7.555   0.534
 5952SOL     OW28189   1.241   4.807   1.947
 5952SOL    HW128190   1.234   4.861   2.031
 5952SOL    HW228191   1.305   4.732   1.961
 5953SOL     OW28192   3.872   4.990   2.583
 5953SOL    HW128193   3.866   4.939   2.497
 5953SOL    HW228194   3.968   5.000   2.610
 5954SOL     OW28195   0.053   5.034   2.067
 5954SOL    HW128196   0.130   5.022   2.130
 5954SOL    HW228197   0.087   5.053   1.975
 5955SOL     OW28198   1.428   2.135   2.793
 5955SOL    HW128199   1.527   2.150   2.795
 5955SOL    HW228200   1.399   2.093   2.879
 5956SOL     OW28201   1.983   4.050   0.465
 5956SOL    HW128202   2.052   4.121   0.477
 5956SOL    HW228203   2.023   3.960   0.482
 5957SOL     OW28204   9.690   1.068   1.366
 5957SOL    HW128205   9.665   1.028   1.278
 5957SOL    HW228206   9.615   1.125   1.399
 5958SOL     OW28207   8.308   0.702   0.437
 5958SOL    HW128208   8.222   0.687   0.485
 5958SOL    HW228209   8.306   0.792   0.393
 5959SOL     OW28210   8.741   3.218   2.642
 5959SOL    HW128211   8.762   3.169   2.727
 5959SOL    HW228212   8.782   3.171   2.565
 5960SOL     OW28213   1.344   5.989   1.441
 5960SOL    HW128214   1.394   6.056   1.387
 5960SOL    HW228215   1.269   5.952   1.387
 5961SOL     OW28216   2.422   4.852   2.935
 5961SOL    HW128217   2.400   4.779   2.870
 5961SOL    HW228218   2.340   4.879   2.985
 5962SOL     OW28219   3.661   5.362   1.466
 5962SOL    HW128220   3.728   5.435   1.479
 5962SOL    HW228221   3.657   5.305   1.548
 5963SOL     OW28222   3.962   7.135   1.931
 5963SOL    HW128223   4.049   7.142   1.881
 5963SOL    HW228224   3.958   7.047   1.977
 5964SOL     OW28225   9.184   6.423   2.820
 5964SOL    HW128226   9.156   6.518   2.830
 5964SOL    HW228227   9.230   6.392   2.903
 5965SOL     OW28228   2.863   6.579   1.583
 5965SOL    HW128229   2.781   6.572   1.526
 5965SOL    HW228230   2.856   6.660   1.641
 5966SOL     OW28231   9.934   2.003   0.849
 5966SOL    HW128232   9.871   2.080   0.847
 5966SOL    HW228233   9.893   1.927   0.899
 5967SOL     OW28234   7.826   8.850   0.581
 5967SOL    HW128235   7.782   8.935   0.551
 5967SOL    HW228236   7.802   8.832   0.676
 5968SOL     OW28237   9.829   3.655   0.148
 5968SOL    HW128238   9.907   3.594   0.135
 5968SOL    HW228239   9.745   3.606   0.126
 5969SOL     OW28240   2.663   3.437   2.941
 5969SOL    HW128241   2.611   3.494   3.004
 5969SOL    HW228242   2.754   3.476   2.928
 5970SOL     OW28243   6.341   9.472   2.288
 5970SOL    HW128244   6.329   9.461   2.189
 5970SOL    HW228245   6.435   9.502   2.307
 5971SOL     OW28246   9.681   6.673   2.999
 5971SOL    HW128247   9.662   6.598   2.935
 5971SOL    HW228248   9.595   6.716   3.026
 5972SOL     OW28249   1.180   2.382   2.602
 5972SOL    HW128250   1.180   2.416   2.507
 5972SOL    HW228251   1.216   2.453   2.662
 5973SOL     OW28252   5.120   8.297   0.383
 5973SOL    HW128253   5.086   8.324   0.473
 5973SOL    HW228254   5.058   8.332   0.313
 5974SOL     OW28255   4.335   9.364   1.523
 5974SOL    HW128256   4.342   9.300   1.446
 5974SOL    HW228257   4.242   9.400   1.528
 5975SOL     OW28258   5.869   9.015   2.533
 5975SOL    HW128259   5.802   9.000   2.460
 5975SOL    HW228260   5.843   8.961   2.613
 5976SOL     OW28261   0.557   8.475   0.434
 5976SOL    HW128262   0.640   8.475   0.378
 5976SOL    HW228263   0.579   8.507   0.526
 5977SOL     OW28264   0.363   9.277   2.593
 5977SOL    HW128265   0.350   9.307   2.688
 5977SOL    HW228266   0.413   9.190   2.592
 5978SOL     OW28267   9.058   4.469   1.342
 5978SOL    HW128268   9.053   4.564   1.309
 5978SOL    HW228269   9.035   4.407   1.267
 5979SOL     OW28270   1.737   6.126   0.252
 5979SOL    HW128271   1.674   6.191   0.210
 5979SOL    HW228272   1.691   6.038   0.263
 5980SOL     OW28273   9.932   6.428   0.223
 5980SOL    HW128274   9.867   6.408   0.296
 5980SOL    HW228275   0.018   6.380   0.242
 5981SOL     OW28276   8.144   6.098   2.017
 5981SOL    HW128277   8.114   6.090   2.112
 5981SOL    HW228278   8.185   6.011   1.988
 5982SOL     OW28279   4.114   5.869   2.725
 5982SOL    HW128280   4.113   5.918   2.812
 5982SOL    HW228281   4.084   5.930   2.652
 5983SOL     OW28282   3.097   2.642   0.380
 5983SOL    HW128283   3.007   2.667   0.344
 5983SOL    HW228284   3.132   2.564   0.328
 5984SOL     OW28285   0.808   8.447   2.287
 5984SOL    HW128286   0.773   8.435   2.194
 5984SOL    HW228287   0.731   8.462   2.349
 5985SOL     OW28288   9.666   1.673   1.996
 5985SOL    HW128289   9.744   1.633   1.948
 5985SOL    HW228290   9.636   1.610   2.068
 5986SOL     OW28291   9.079   2.019   0.541
 5986SOL    HW128292   9.060   1.921   0.542
 5986SOL    HW228293   9.018   2.064   0.476
 5987SOL     OW28294   8.429   1.455   2.872
 5987SOL    HW128295   8.523   1.481   2.890
 5987SOL    HW228296   8.377   1.534   2.840
 5988SOL     OW28297   1.745   8.641   1.628
 5988SOL    HW128298   1.763   8.602   1.718
 5988SOL    HW228299   1.647   8.653   1.616
 5989SOL     OW28300   8.729   5.157   1.241
 5989SOL    HW128301   8.826   5.173   1.223
 5989SOL    HW228302   8.679   5.243   1.230
 5990SOL     OW28303   9.742   1.894   1.840
 5990SOL    HW128304   9.681   1.974   1.840
 5990SOL    HW228305   9.706   1.825   1.903
 5991SOL     OW28306   0.208   3.111   1.157
 5991SOL    HW128307   0.146   3.123   1.234
 5991SOL    HW228308   0.231   3.014   1.148
 5992SOL     OW28309   2.344   8.122   1.347
 5992SOL    HW128310   2.311   8.142   1.440
 5992SOL    HW228311   2.304   8.035   1.316
 5993SOL     OW28312   0.176   1.085   0.725
 5993SOL    HW128313   0.106   1.156   0.721
 5993SOL    HW228314   0.203   1.069   0.820
 5994SOL     OW28315   4.423   3.929   1.145
 5994SOL    HW128316   4.418   3.992   1.067
 5994SOL    HW228317   4.422   3.981   1.230
 5995SOL     OW28318   7.640   9.060   0.249
 5995SOL    HW128319   7.660   9.066   0.347
 5995SOL    HW228320   7.548   9.096   0.233
 5996SOL     OW28321   9.372   6.535   0.984
 5996SOL    HW128322   9.354   6.616   0.928
 5996SOL    HW228323   9.292   6.476   0.983
 5997SOL     OW28324   2.961   0.112   1.388
 5997SOL    HW128325   3.025   0.169   1.337
 5997SOL    HW228326   2.963   0.139   1.485
 5998SOL     OW28327   0.671   4.147   0.610
 5998SOL    HW128328   0.647   4.095   0.528
 5998SOL    HW228329   0.765   4.182   0.601
 5999SOL     OW28330   9.320   8.124   2.328
 5999SOL    HW128331   9.308   8.161   2.235
 5999SOL    HW228332   9.279   8.186   2.394
 6000SOL     OW28333   4.576   1.028   0.965
 6000SOL    HW128334   4.624   1.002   0.881
 6000SOL    HW228335   4.492   0.975   0.974
 6001SOL     OW28336   9.292   3.593   2.469
 6001SOL    HW128337   9.380   3.618   2.510
 6001SOL    HW228338   9.249   3.522   2.525
 6002SOL     OW28339   1.445   7.160   2.530
 6002SOL    HW128340   1.514   7.171   2.601
 6002SOL    HW228341   1.488   7.124   2.447
 6003SOL     OW28342   3.460   2.720   1.768
 6003SOL    HW128343   3.526   2.779   1.814
 6003SOL    HW228344   3.369   2.734   1.807
 6004SOL     OW28345   9.283   3.839   1.855
 6004SOL    HW128346   9.188   3.809   1.849
 6004SOL    HW228347   9.332   3.783   1.922
 6005SOL     OW28348   5.238   8.212   3.021
 6005SOL    HW128349   5.199   8.171   3.103
 6005SOL    HW228350   5.200   8.303   3.007
 6006SOL     OW28351   7.741   9.901   2.501
 6006SOL    HW128352   7.769   9.945   2.587
 6006SOL    HW228353   7.798   9.935   2.426
 6007SOL     OW28354   1.492   7.662   0.872
 6007SOL    HW128355   1.442   7.743   0.842
 6007SOL    HW228356   1.562   7.639   0.805
 6008SOL     OW28357   1.088   2.801   0.150
 6008SOL    HW128358   1.109   2.729   0.216
 6008SOL    HW228359   1.149   2.879   0.164
 6009SOL     OW28360   0.592   3.485   0.202
 6009SOL    HW128361   0.620   3.406   0.146
 6009SOL    HW228362   0.671   3.522   0.250
 6010SOL     OW28363   4.753   3.545   0.758
 6010SOL    HW128364   4.655   3.561   0.745
 6010SOL    HW228365   4.792   3.619   0.813
 6011SOL     OW28366   9.207   7.596   2.734
 6011SOL    HW128367   9.119   7.572   2.692
 6011SOL    HW228368   9.281   7.575   2.670
 6012SOL     OW28369   8.983   4.024   2.517
 6012SOL    HW128370   9.033   3.938   2.505
 6012SOL    HW228371   8.885   4.008   2.510
 6013SOL     OW28372   9.908   7.616   2.515
 6013SOL    HW128373   9.892   7.630   2.418
 6013SOL    HW228374   9.900   7.519   2.537
 6014SOL     OW28375   8.018   4.828   3.000
 6014SOL    HW128376   7.979   4.758   3.060
 6014SOL    HW228377   8.090   4.788   2.944
 6015SOL     OW28378   4.478   6.750   2.664
 6015SOL    HW128379   4.459   6.661   2.623
 6015SOL    HW228380   4.398   6.781   2.716
 6016SOL     OW28381   3.821   0.487   0.391
 6016SOL    HW128382   3.775   0.468   0.305
 6016SOL    HW228383   3.886   0.562   0.379
 6017SOL     OW28384   3.256   8.193   2.665
 6017SOL    HW128385   3.171   8.245   2.673
 6017SOL    HW228386   3.318   8.242   2.603
 6018SOL     OW28387   6.688   9.325   2.212
 6018SOL    HW128388   6.655   9.412   2.250
 6018SOL    HW228389   6.656   9.315   2.118
 6019SOL     OW28390   6.895   9.675   1.021
 6019SOL    HW128391   6.924   9.635   0.934
 6019SOL    HW228392   6.962   9.742   1.051
 6020SOL     OW28393   6.557   0.058   2.819
 6020SOL    HW128394   6.488   0.118   2.779
 6020SOL    HW228395   6.611   0.109   2.886
 6021SOL     OW28396   0.487   3.408   2.555
 6021SOL    HW128397   0.394   3.381   2.579
 6021SOL    HW228398   0.499   3.506   2.568
 6022SOL     OW28399   9.100   5.283   0.734
 6022SOL    HW128400   9.125   5.235   0.650
 6022SOL    HW228401   9.176   5.341   0.763
 6023SOL     OW28402   3.677   4.537   3.009
 6023SOL    HW128403   3.749   4.471   3.031
 6023SOL    HW228404   3.708   4.630   3.030
 6024SOL     OW28405   1.283   5.106   1.905
 6024SOL    HW128406   1.231   5.186   1.876
 6024SOL    HW228407   1.245   5.070   1.990
 6025SOL     OW28408   4.604   9.315   2.824
 6025SOL    HW128409   4.619   9.412   2.807
 6025SOL    HW228410   4.685   9.276   2.869
 6026SOL     OW28411   7.467   9.943   0.643
 6026SOL    HW128412   7.505   0.032   0.666
 6026SOL    HW228413   7.468   9.931   0.543
 6027SOL     OW28414   9.007   2.243   1.983
 6027SOL    HW128415   8.998   2.312   1.912
 6027SOL    HW228416   9.102   2.242   2.017
 6028SOL     OW28417   3.792   7.654   2.945
 6028SOL    HW128418   3.869   7.628   2.886
 6028SOL    HW228419   3.819   7.730   3.004
 6029SOL     OW28420   1.719   8.360   2.991
 6029SOL    HW128421   1.680   8.448   3.020
 6029SOL    HW228422   1.689   8.340   2.898
 6030SOL     OW28423   0.531   6.190   2.982
 6030SOL    HW128424   0.503   6.281   3.011
 6030SOL    HW228425   0.538   6.130   3.062
 6031SOL     OW28426   0.584   8.301   3.077
 6031SOL    HW128427   0.485   8.317   3.077
 6031SOL    HW228428   0.603   8.207   3.105
 6032SOL     OW28429   0.949   5.989   3.016
 6032SOL    HW128430   1.028   6.033   2.974
 6032SOL    HW228431   0.868   6.003   2.959
 6033SOL     OW28432   2.320   0.310   3.003
 6033SOL    HW128433   2.338   0.370   2.925
 6033SOL    HW228434   2.403   0.259   3.026
 6034SOL     OW28435   3.341   8.788   0.493
 6034SOL    HW128436   3.268   8.795   0.561
 6034SOL    HW228437   3.423   8.833   0.528
 6035SOL     OW28438   8.256   0.214   0.616
 6035SOL    HW128439   8.215   0.187   0.529
 6035SOL    HW228440   8.202   0.287   0.658
 6036SOL     OW28441   9.563   7.845   2.985
 6036SOL    HW128442   9.586   7.750   2.961
 6036SOL    HW228443   9.647   7.899   2.989
 6037SOL     OW28444   2.844   0.328   0.854
 6037SOL    HW128445   2.779   0.282   0.793
 6037SOL    HW228446   2.855   0.423   0.826
 6038SOL     OW28447   8.447   3.737   1.006
 6038SOL    HW128448   8.409   3.698   0.922
 6038SOL    HW228449   8.443   3.837   1.000
 6039SOL     OW28450   1.476   8.588   2.370
 6039SOL    HW128451   1.508   8.683   2.381
 6039SOL    HW228452   1.404   8.569   2.437
 6040SOL     OW28453   0.795   2.388   1.846
 6040SOL    HW128454   0.760   2.480   1.833
 6040SOL    HW228455   0.823   2.376   1.941
 6041SOL     OW28456   8.644   7.174   2.132
 6041SOL    HW128457   8.547   7.196   2.118
 6041SOL    HW228458   8.674   7.111   2.060
 6042SOL     OW28459   1.791   8.009   0.555
 6042SOL    HW128460   1.819   7.945   0.626
 6042SOL    HW228461   1.703   8.049   0.578
 6043SOL     OW28462   9.404   7.286   1.476
 6043SOL    HW128463   9.494   7.329   1.480
 6043SOL    HW228464   9.388   7.235   1.560
 6044SOL     OW28465   8.327   0.726   2.234
 6044SOL    HW128466   8.237   0.728   2.189
 6044SOL    HW228467   8.399   0.728   2.166
 6045SOL     OW28468   2.354   9.879   1.565
 6045SOL    HW128469   2.440   9.931   1.565
 6045SOL    HW228470   2.374   9.781   1.570
 6046SOL     OW28471   5.343   0.819   1.647
 6046SOL    HW128472   5.339   0.721   1.625
 6046SOL    HW228473   5.250   0.855   1.656
 6047SOL     OW28474   1.495   0.435   2.903
 6047SOL    HW128475   1.510   0.413   2.806
 6047SOL    HW228476   1.525   0.528   2.921
 6048SOL     OW28477   0.723   6.028   2.857
 6048SOL    HW128478   0.664   6.087   2.912
 6048SOL    HW228479   0.711   6.049   2.760
 6049SOL     OW28480   4.654   7.883   0.356
 6049SOL    HW128481   4.629   7.958   0.295
 6049SOL    HW228482   4.719   7.823   0.309
 6050SOL     OW28483   9.677   3.894   0.841
 6050SOL    HW128484   9.666   3.809   0.789
 6050SOL    HW228485   9.730   3.875   0.924
 6051SOL     OW28486   2.475   5.325   3.063
 6051SOL    HW128487   2.394   5.366   3.020
 6051SOL    HW228488   2.499   5.240   3.016
 6052SOL     OW28489   0.494   6.873   2.494
 6052SOL    HW128490   0.471   6.849   2.589
 6052SOL    HW228491   0.563   6.945   2.494
 6053SOL     OW28492   8.767   8.131   1.375
 6053SOL    HW128493   8.761   8.032   1.364
 6053SOL    HW228494   8.860   8.161   1.354
 6054SOL     OW28495   3.230   6.624   3.104
 6054SOL    HW128496   3.131   6.630   3.090
 6054SOL    HW228497   3.253   6.536   3.147
 6055SOL     OW28498   1.170   0.976   1.581
 6055SOL    HW128499   1.091   0.939   1.630
 6055SOL    HW228500   1.212   1.049   1.636
 6056SOL     OW28501   1.635   2.334   2.151
 6056SOL    HW128502   1.697   2.403   2.187
 6056SOL    HW228503   1.670   2.243   2.172
 6057SOL     OW28504   1.260   4.487   1.785
 6057SOL    HW128505   1.324   4.524   1.851
 6057SOL    HW228506   1.296   4.402   1.747
 6058SOL     OW28507   1.439   9.743   2.949
 6058SOL    HW128508   1.444   9.654   2.995
 6058SOL    HW228509   1.347   9.780   2.958
 6059SOL     OW28510   2.736   9.312   0.982
 6059SOL    HW128511   2.689   9.291   0.897
 6059SOL    HW228512   2.771   9.228   1.023
 6060SOL     OW28513   9.785   7.192   0.048
 6060SOL    HW128514   9.756   7.200   3.994
 6060SOL    HW228515   9.860   7.127   0.055
 6061SOL     OW28516   1.592   3.989   1.096
 6061SOL    HW128517   1.527   3.912   1.099
 6061SOL    HW228518   1.651   3.985   1.177
 6062SOL     OW28519   9.890   4.798   1.402
 6062SOL    HW128520   9.979   4.761   1.375
 6062SOL    HW228521   9.828   4.723   1.426
 6063SOL     OW28522   9.463   0.940   1.580
 6063SOL    HW128523   9.522   0.928   1.660
 6063SOL    HW228524   9.488   0.874   1.510
 6064SOL     OW28525   7.587   2.497   0.723
 6064SOL    HW128526   7.527   2.542   0.657
 6064SOL    HW228527   7.534   2.428   0.773
 6065SOL     OW28528   0.878   5.306   0.598
 6065SOL    HW128529   0.831   5.320   0.511
 6065SOL    HW228530   0.977   5.314   0.585
 6066SOL     OW28531   3.415   9.598   2.773
 6066SOL    HW128532   3.479   9.673   2.751
 6066SOL    HW228533   3.378   9.612   2.865
 6067SOL     OW28534   8.969   9.184   2.412
 6067SOL    HW128535   9.046   9.121   2.412
 6067SOL    HW228536   8.933   9.192   2.505
 6068SOL     OW28537   0.336   9.587   1.105
 6068SOL    HW128538   0.290   9.593   1.016
 6068SOL    HW228539   0.268   9.566   1.175
 6069SOL     OW28540   4.814   9.200   2.946
 6069SOL    HW128541   4.840   9.103   2.949
 6069SOL    HW228542   4.887   9.255   2.987
 6070SOL     OW28543   2.278   6.916   2.459
 6070SOL    HW128544   2.250   6.932   2.554
 6070SOL    HW228545   2.342   6.839   2.457
 6071SOL     OW28546   3.883   4.669   2.581
 6071SOL    HW128547   3.924   4.640   2.494
 6071SOL    HW228548   3.786   4.690   2.567
 6072SOL     OW28549   8.271   7.018   2.996
 6072SOL    HW128550   8.278   7.081   2.919
 6072SOL    HW228551   8.355   7.021   3.050
 6073SOL     OW28552   0.448   0.290   0.808
 6073SOL    HW128553   0.476   0.275   0.713
 6073SOL    HW228554   0.524   0.329   0.860
 6074SOL     OW28555   2.851   5.426   1.163
 6074SOL    HW128556   2.850   5.521   1.196
 6074SOL    HW228557   2.850   5.364   1.241
 6075SOL     OW28558   2.278   0.401   1.324
 6075SOL    HW128559   2.237   0.332   1.266
 6075SOL    HW228560   2.212   0.429   1.395
 6076SOL     OW28561   0.366   0.704   2.222
 6076SOL    HW128562   0.287   0.643   2.214
 6076SOL    HW228563   0.439   0.658   2.273
 6077SOL     OW28564   2.853   2.564   1.197
 6077SOL    HW128565   2.857   2.660   1.171
 6077SOL    HW228566   2.757   2.535   1.202
 6078SOL     OW28567   8.642   0.433   0.368
 6078SOL    HW128568   8.702   0.469   0.297
 6078SOL    HW228569   8.548   0.429   0.333
 6079SOL     OW28570   2.236   4.830   0.198
 6079SOL    HW128571   2.155   4.772   0.190
 6079SOL    HW228572   2.224   4.912   0.142
 6080SOL     OW28573   0.427   7.749   1.404
 6080SOL    HW128574   0.337   7.706   1.406
 6080SOL    HW228575   0.496   7.682   1.377
 6081SOL     OW28576   2.752   9.673   0.078
 6081SOL    HW128577   2.851   9.684   0.088
 6081SOL    HW228578   2.713   9.757   0.042
 6082SOL     OW28579   0.850   8.805   1.743
 6082SOL    HW128580   0.790   8.735   1.781
 6082SOL    HW228581   0.800   8.892   1.737
 6083SOL     OW28582   9.647   2.471   2.576
 6083SOL    HW128583   9.681   2.545   2.518
 6083SOL    HW228584   9.674   2.488   2.671
 6084SOL     OW28585   4.664   4.666   1.842
 6084SOL    HW128586   4.754   4.702   1.865
 6084SOL    HW228587   4.620   4.631   1.925
 6085SOL     OW28588   7.868   7.276   2.863
 6085SOL    HW128589   7.944   7.335   2.834
 6085SOL    HW228590   7.896   7.220   2.940
 6086SOL     OW28591   1.611   1.973   0.909
 6086SOL    HW128592   1.531   1.939   0.859
 6086SOL    HW228593   1.582   2.005   0.999
 6087SOL     OW28594   0.024   4.460   0.317
 6087SOL    HW128595   9.945   4.420   0.271
 6087SOL    HW228596   0.107   4.414   0.286
 6088SOL     OW28597   8.622   6.012   0.236
 6088SOL    HW128598   8.638   6.108   0.212
 6088SOL    HW228599   8.705   5.972   0.273
 6089SOL     OW28600   0.605   1.596   1.199
 6089SOL    HW128601   0.664   1.594   1.118
 6089SOL    HW228602   0.532   1.663   1.185
 6090SOL     OW28603   1.089   1.856   2.155
 6090SOL    HW128604   1.149   1.901   2.221
 6090SOL    HW228605   1.140   1.835   2.072
 6091SOL     OW28606   0.853   2.756   2.844
 6091SOL    HW128607   0.867   2.823   2.916
 6091SOL    HW228608   0.928   2.761   2.778
 6092SOL     OW28609   4.390   6.516   2.545
 6092SOL    HW128610   4.298   6.503   2.581
 6092SOL    HW228611   4.386   6.534   2.447
 6093SOL     OW28612   2.016   9.787   1.681
 6093SOL    HW128613   2.036   9.767   1.585
 6093SOL    HW228614   2.095   9.762   1.737
 6094SOL     OW28615   3.057   5.820   0.133
 6094SOL    HW128616   3.150   5.794   0.159
 6094SOL    HW228617   3.056   5.853   0.039
 6095SOL     OW28618   8.582   1.500   1.404
 6095SOL    HW128619   8.654   1.523   1.469
 6095SOL    HW228620   8.494   1.492   1.452
 6096SOL     OW28621   8.757   4.527   2.367
 6096SOL    HW128622   8.752   4.622   2.335
 6096SOL    HW228623   8.833   4.481   2.321
 6097SOL     OW28624   2.454   4.804   1.789
 6097SOL    HW128625   2.424   4.785   1.883
 6097SOL    HW228626   2.392   4.761   1.724
 6098SOL     OW28627   3.536   3.029   0.882
 6098SOL    HW128628   3.521   3.015   0.784
 6098SOL    HW228629   3.480   3.107   0.913
 6099SOL     OW28630   8.290   0.546   2.444
 6099SOL    HW128631   8.300   0.614   2.372
 6099SOL    HW228632   8.261   0.459   2.404
 6100SOL     OW28633   2.591   9.133   1.668
 6100SOL    HW128634   2.539   9.155   1.586
 6100SOL    HW228635   2.655   9.208   1.688
 6101SOL     OW28636   8.211   0.637   2.698
 6101SOL    HW128637   8.236   0.610   2.604
 6101SOL    HW228638   8.250   0.572   2.763
 6102SOL     OW28639   0.045   8.751   2.497
 6102SOL    HW128640   0.104   8.673   2.520
 6102SOL    HW228641   0.023   8.802   2.580
 6103SOL     OW28642   0.576   8.180   2.663
 6103SOL    HW128643   0.634   8.234   2.724
 6103SOL    HW228644   0.625   8.097   2.636
 6104SOL     OW28645   4.659   0.383   1.770
 6104SOL    HW128646   4.645   0.297   1.820
 6104SOL    HW228647   4.638   0.460   1.830
 6105SOL     OW28648   0.463   6.222   1.797
 6105SOL    HW128649   0.546   6.175   1.830
 6105SOL    HW228650   0.421   6.167   1.725
 6106SOL     OW28651   1.155   5.416   1.087
 6106SOL    HW128652   1.172   5.319   1.071
 6106SOL    HW228653   1.212   5.470   1.023
 6107SOL     OW28654   0.715   8.407   2.031
 6107SOL    HW128655   0.782   8.344   1.993
 6107SOL    HW228656   0.705   8.485   1.969
 6108SOL     OW28657   0.181   4.573   3.010
 6108SOL    HW128658   0.155   4.645   3.074
 6108SOL    HW228659   0.132   4.489   3.033
 6109SOL     OW28660   0.327   3.420   0.688
 6109SOL    HW128661   0.340   3.513   0.656
 6109SOL    HW228662   0.397   3.397   0.755
 6110SOL     OW28663   1.861   2.090   2.020
 6110SOL    HW128664   1.921   2.012   2.001
 6110SOL    HW228665   1.840   2.093   2.118
 6111SOL     OW28666   3.160   6.745   1.926
 6111SOL    HW128667   3.118   6.828   1.889
 6111SOL    HW228668   3.241   6.770   1.980
 6112SOL     OW28669   2.202   2.762   2.618
 6112SOL    HW128670   2.205   2.686   2.683
 6112SOL    HW228671   2.109   2.772   2.583
 6113SOL     OW28672   7.082   0.370   2.301
 6113SOL    HW128673   7.045   0.424   2.376
 6113SOL    HW228674   7.182   0.381   2.298
 6114SOL     OW28675   1.163   7.724   0.085
 6114SOL    HW128676   1.175   7.679   0.174
 6114SOL    HW228677   1.252   7.755   0.052
 6115SOL     OW28678   5.523   9.602   2.660
 6115SOL    HW128679   5.612   9.562   2.639
 6115SOL    HW228680   5.508   9.682   2.602
 6116SOL     OW28681   3.892   6.897   2.052
 6116SOL    HW128682   3.859   6.935   2.138
 6116SOL    HW228683   3.815   6.869   1.995
 6117SOL     OW28684   9.396   5.564   0.440
 6117SOL    HW128685   9.397   5.633   0.513
 6117SOL    HW228686   9.308   5.519   0.438
 6118SOL     OW28687   4.777   8.463   0.496
 6118SOL    HW128688   4.865   8.434   0.533
 6118SOL    HW228689   4.748   8.547   0.541
 6119SOL     OW28690   9.801   0.923   0.220
 6119SOL    HW128691   9.872   0.964   0.278
 6119SOL    HW228692   9.802   0.824   0.232
 6120SOL     OW28693   9.626   0.957   1.117
 6120SOL    HW128694   9.547   0.896   1.109
 6120SOL    HW228695   9.622   1.026   1.045
 6121SOL     OW28696   3.510   9.474   1.614
 6121SOL    HW128697   3.477   9.557   1.569
 6121SOL    HW228698   3.433   9.413   1.632
 6122SOL     OW28699   3.546   1.938   0.666
 6122SOL    HW128700   3.573   1.855   0.617
 6122SOL    HW228701   3.553   2.017   0.605
 6123SOL     OW28702   8.893   3.585   1.595
 6123SOL    HW128703   8.925   3.530   1.518
 6123SOL    HW228704   8.817   3.642   1.566
 6124SOL     OW28705   1.645   9.463   2.213
 6124SOL    HW128706   1.644   9.562   2.231
 6124SOL    HW228707   1.615   9.414   2.295
 6125SOL     OW28708   9.755   3.596   2.668
 6125SOL    HW128709   9.785   3.680   2.712
 6125SOL    HW228710   9.655   3.594   2.666
 6126SOL     OW28711   2.723   5.323   0.946
 6126SOL    HW128712   2.717   5.394   0.875
 6126SOL    HW228713   2.765   5.362   1.028
 6127SOL     OW28714   8.397   4.957   2.924
 6127SOL    HW128715   8.324   4.895   2.897
 6127SOL    HW228716   8.482   4.905   2.936
 6128SOL     OW28717   8.868   1.317   1.587
 6128SOL    HW128718   8.949   1.269   1.621
 6128SOL    HW228719   8.787   1.260   1.602
 6129SOL     OW28720   0.565   0.549   2.334
 6129SOL    HW128721   0.527   0.470   2.382
 6129SOL    HW228722   0.606   0.518   2.248
 6130SOL     OW28723   2.493   3.571   3.110
 6130SOL    HW128724   2.402   3.567   3.070
 6130SOL    HW228725   2.505   3.658   3.159
 6131SOL     OW28726   3.302   1.582   0.046
 6131SOL    HW128727   3.276   1.488   0.067
 6131SOL    HW228728   3.319   1.590   3.988
 6132SOL     OW28729   1.597   5.502   2.468
 6132SOL    HW128730   1.604   5.599   2.492
 6132SOL    HW228731   1.652   5.483   2.387
 6133SOL     OW28732   0.627   9.601   1.479
 6133SOL    HW128733   0.591   9.550   1.401
 6133SOL    HW228734   0.719   9.634   1.457
 6134SOL     OW28735   1.391   7.586   2.626
 6134SOL    HW128736   1.374   7.513   2.560
 6134SOL    HW228737   1.370   7.674   2.585
 6135SOL     OW28738   3.007   6.084   1.527
 6135SOL    HW128739   2.997   6.015   1.598
 6135SOL    HW228740   2.953   6.165   1.552
 6136SOL     OW28741   7.908   5.766   1.663
 6136SOL    HW128742   7.989   5.801   1.618
 6136SOL    HW228743   7.876   5.684   1.616
 6137SOL     OW28744   9.553   3.837   3.011
 6137SOL    HW128745   9.579   3.923   3.057
 6137SOL    HW228746   9.540   3.855   2.913
 6138SOL     OW28747   5.045   8.110   0.071
 6138SOL    HW128748   5.119   8.101   0.137
 6138SOL    HW228749   5.078   8.085   4.020
 6139SOL     OW28750   3.918   4.812   1.632
 6139SOL    HW128751   3.969   4.867   1.698
 6139SOL    HW228752   3.981   4.775   1.564
 6140SOL     OW28753   9.579   5.478   1.803
 6140SOL    HW128754   9.512   5.538   1.758
 6140SOL    HW228755   9.615   5.523   1.885
 6141SOL     OW28756   8.132   5.490   0.063
 6141SOL    HW128757   8.189   5.412   0.086
 6141SOL    HW228758   8.083   5.472   4.018
 6142SOL     OW28759   9.557   6.580   0.429
 6142SOL    HW128760   9.504   6.662   0.450
 6142SOL    HW228761   9.609   6.594   0.345
 6143SOL     OW28762   8.741   3.842   2.157
 6143SOL    HW128763   8.691   3.800   2.082
 6143SOL    HW228764   8.748   3.777   2.233
 6144SOL     OW28765   2.390   4.904   1.045
 6144SOL    HW128766   2.450   4.903   1.125
 6144SOL    HW228767   2.440   4.943   0.967
 6145SOL     OW28768   2.092   7.529   2.505
 6145SOL    HW128769   2.158   7.577   2.447
 6145SOL    HW228770   2.029   7.595   2.546
 6146SOL     OW28771   9.053   0.016   1.707
 6146SOL    HW128772   9.022   9.997   1.799
 6146SOL    HW228773   9.111   9.941   1.674
 6147SOL     OW28774   0.286   1.900   2.679
 6147SOL    HW128775   0.315   1.981   2.628
 6147SOL    HW228776   0.281   1.822   2.618
 6148SOL     OW28777   1.384   3.303   0.746
 6148SOL    HW128778   1.322   3.295   0.824
 6148SOL    HW228779   1.417   3.398   0.740
 6149SOL     OW28780   8.217   2.052   0.466
 6149SOL    HW128781   8.162   2.105   0.401
 6149SOL    HW228782   8.298   2.105   0.491
 6150SOL     OW28783   9.770   7.311   3.073
 6150SOL    HW128784   9.849   7.371   3.066
 6150SOL    HW228785   9.798   7.216   3.057
 6151SOL     OW28786   9.642   1.531   0.642
 6151SOL    HW128787   9.655   1.436   0.615
 6151SOL    HW228788   9.705   1.590   0.590
 6152SOL     OW28789   9.002   7.377   2.803
 6152SOL    HW128790   8.975   7.388   2.899
 6152SOL    HW228791   8.967   7.454   2.750
 6153SOL     OW28792   2.786   5.671   2.482
 6153SOL    HW128793   2.708   5.733   2.474
 6153SOL    HW228794   2.805   5.655   2.579
 6154SOL     OW28795   1.467   1.983   1.994
 6154SOL    HW128796   1.414   2.068   1.984
 6154SOL    HW228797   1.546   1.986   1.932
 6155SOL     OW28798   8.491   7.746   1.512
 6155SOL    HW128799   8.437   7.729   1.430
 6155SOL    HW228800   8.451   7.822   1.563
 6156SOL     OW28801   2.288   9.694   1.055
 6156SOL    HW128802   2.365   9.719   1.114
 6156SOL    HW228803   2.322   9.669   0.964
 6157SOL     OW28804   9.833   1.075   2.377
 6157SOL    HW128805   9.933   1.081   2.384
 6157SOL    HW228806   9.804   0.984   2.408
 6158SOL     OW28807   1.686   4.439   1.124
 6158SOL    HW128808   1.690   4.531   1.163
 6158SOL    HW228809   1.776   4.415   1.086
 6159SOL     OW28810   5.151   8.105   2.236
 6159SOL    HW128811   5.088   8.179   2.257
 6159SOL    HW228812   5.136   8.029   2.300
 6160SOL     OW28813   9.033   4.135   0.031
 6160SOL    HW128814   9.029   4.046   0.076
 6160SOL    HW228815   8.940   4.171   0.021
 6161SOL     OW28816   0.242   7.791   2.549
 6161SOL    HW128817   0.155   7.824   2.585
 6161SOL    HW228818   0.254   7.695   2.577
 6162SOL     OW28819   2.851   4.668   1.636
 6162SOL    HW128820   2.854   4.725   1.718
 6162SOL    HW228821   2.892   4.717   1.560
 6163SOL     OW28822   1.100   2.139   3.006
 6163SOL    HW128823   1.184   2.092   3.033
 6163SOL    HW228824   1.097   2.146   2.906
 6164SOL     OW28825   0.566   7.803   0.445
 6164SOL    HW128826   0.483   7.748   0.435
 6164SOL    HW228827   0.548   7.880   0.507
 6165SOL     OW28828   7.824   6.029   1.731
 6165SOL    HW128829   7.855   5.936   1.711
 6165SOL    HW228830   7.730   6.041   1.699
 6166SOL     OW28831   6.267   8.184   2.206
 6166SOL    HW128832   6.358   8.224   2.197
 6166SOL    HW228833   6.228   8.168   2.116
 6167SOL     OW28834   2.108   6.575   2.279
 6167SOL    HW128835   2.082   6.542   2.370
 6167SOL    HW228836   2.137   6.670   2.285
 6168SOL     OW28837   1.170   1.463   2.144
 6168SOL    HW128838   1.071   1.456   2.140
 6168SOL    HW228839   1.203   1.424   2.230
 6169SOL     OW28840   8.803   5.441   3.032
 6169SOL    HW128841   8.707   5.467   3.032
 6169SOL    HW228842   8.837   5.437   2.938
 6170SOL     OW28843   0.129   2.690   2.663
 6170SOL    HW128844   0.138   2.651   2.572
 6170SOL    HW228845   0.034   2.716   2.680
 6171SOL     OW28846   9.960   5.370   1.408
 6171SOL    HW128847   9.886   5.312   1.443
 6171SOL    HW228848   9.983   5.341   1.315
 6172SOL     OW28849   3.208   4.793   2.164
 6172SOL    HW128850   3.162   4.857   2.102
 6172SOL    HW228851   3.145   4.764   2.235
 6173SOL     OW28852   0.767   5.976   2.439
 6173SOL    HW128853   0.790   5.883   2.466
 6173SOL    HW228854   0.701   6.015   2.504
 6174SOL     OW28855   9.466   8.855   1.200
 6174SOL    HW128856   9.392   8.811   1.148
 6174SOL    HW228857   9.554   8.824   1.164
 6175SOL     OW28858   1.098   5.019   2.772
 6175SOL    HW128859   1.017   4.964   2.793
 6175SOL    HW228860   1.172   4.995   2.834
 6176SOL     OW28861   2.142   1.523   1.716
 6176SOL    HW128862   2.242   1.527   1.706
 6176SOL    HW228863   2.100   1.595   1.661
 6177SOL     OW28864   8.735   1.081   1.245
 6177SOL    HW128865   8.701   0.988   1.235
 6177SOL    HW228866   8.658   1.144   1.256
 6178SOL     OW28867   2.569   9.893   2.514
 6178SOL    HW128868   2.605   9.930   2.428
 6178SOL    HW228869   2.629   9.819   2.545
 6179SOL     OW28870   1.571   3.574   1.532
 6179SOL    HW128871   1.567   3.642   1.459
 6179SOL    HW228872   1.663   3.573   1.572
 6180SOL     OW28873   5.896   7.707   2.752
 6180SOL    HW128874   5.916   7.803   2.771
 6180SOL    HW228875   5.980   7.660   2.725
 6181SOL     OW28876   2.183   1.011   0.649
 6181SOL    HW128877   2.273   0.977   0.676
 6181SOL    HW228878   2.113   0.967   0.706
 6182SOL     OW28879   2.526   2.366   0.293
 6182SOL    HW128880   2.539   2.286   0.351
 6182SOL    HW228881   2.541   2.449   0.348
 6183SOL     OW28882   0.015   7.985   1.729
 6183SOL    HW128883   0.048   8.066   1.680
 6183SOL    HW228884   9.926   8.005   1.770
 6184SOL     OW28885   0.212   0.722   1.504
 6184SOL    HW128886   0.120   0.760   1.499
 6184SOL    HW228887   0.278   0.796   1.517
 6185SOL     OW28888   9.631   6.465   2.825
 6185SOL    HW128889   9.619   6.377   2.870
 6185SOL    HW228890   9.555   6.480   2.762
 6186SOL     OW28891   9.806   1.366   1.656
 6186SOL    HW128892   9.750   1.398   1.580
 6186SOL    HW228893   9.836   1.444   1.711
 6187SOL     OW28894   9.323   7.082   0.480
 6187SOL    HW128895   9.242   7.140   0.485
 6187SOL    HW228896   9.399   7.124   0.529
 6188SOL     OW28897   1.664   5.925   1.253
 6188SOL    HW128898   1.688   5.924   1.156
 6188SOL    HW228899   1.641   5.832   1.283
 6189SOL     OW28900   2.045   9.835   0.994
 6189SOL    HW128901   2.132   9.797   1.024
 6189SOL    HW228902   2.008   9.778   0.920
 6190SOL     OW28903   9.830   8.171   0.911
 6190SOL    HW128904   9.782   8.148   0.826
 6190SOL    HW228905   9.901   8.239   0.892
 6191SOL     OW28906   1.229   3.403   2.840
 6191SOL    HW128907   1.249   3.482   2.782
 6191SOL    HW228908   1.305   3.385   2.901
 6192SOL     OW28909   3.664   2.170   2.742
 6192SOL    HW128910   3.568   2.198   2.738
 6192SOL    HW228911   3.720   2.237   2.693
 6193SOL     OW28912   1.102   1.840   1.593
 6193SOL    HW128913   1.115   1.908   1.664
 6193SOL    HW228914   1.062   1.883   1.512
 6194SOL     OW28915   1.069   4.386   2.370
 6194SOL    HW128916   1.082   4.450   2.294
 6194SOL    HW228917   1.036   4.436   2.450
 6195SOL     OW28918   2.949   7.187   0.267
 6195SOL    HW128919   3.038   7.177   0.312
 6195SOL    HW228920   2.907   7.273   0.297
 6196SOL     OW28921   7.473   9.928   2.555
 6196SOL    HW128922   7.468   9.979   2.640
 6196SOL    HW228923   7.569   9.913   2.530
 6197SOL     OW28924   8.716   6.542   0.096
 6197SOL    HW128925   8.680   6.606   0.163
 6197SOL    HW228926   8.808   6.570   0.070
 6198SOL     OW28927   0.511   1.802   2.322
 6198SOL    HW128928   0.451   1.824   2.246
 6198SOL    HW228929   0.555   1.885   2.356
 6199SOL     OW28930   6.008   8.352   2.997
 6199SOL    HW128931   6.102   8.342   2.964
 6199SOL    HW228932   5.951   8.281   2.956
 6200SOL     OW28933   3.030   1.634   1.697
 6200SOL    HW128934   2.939   1.649   1.736
 6200SOL    HW228935   3.098   1.686   1.748
 6201SOL     OW28936   1.610   4.409   1.535
 6201SOL    HW128937   1.613   4.424   1.634
 6201SOL    HW228938   1.523   4.443   1.500
 6202SOL     OW28939   1.834   1.569   1.213
 6202SOL    HW128940   1.931   1.570   1.191
 6202SOL    HW228941   1.788   1.498   1.159
 6203SOL     OW28942   0.657   8.143   0.398
 6203SOL    HW128943   0.638   8.144   0.300
 6203SOL    HW228944   0.572   8.156   0.449
 6204SOL     OW28945   7.856   2.323   2.013
 6204SOL    HW128946   7.923   2.374   2.067
 6204SOL    HW228947   7.863   2.350   1.917
 6205SOL     OW28948   3.689   5.235   2.906
 6205SOL    HW128949   3.612   5.224   2.970
 6205SOL    HW228950   3.654   5.266   2.818
 6206SOL     OW28951   9.572   3.623   1.671
 6206SOL    HW128952   9.560   3.574   1.757
 6206SOL    HW228953   9.665   3.660   1.667
 6207SOL     OW28954   0.090   2.037   2.816
 6207SOL    HW128955   9.997   2.018   2.783
 6207SOL    HW228956   0.156   1.984   2.764
 6208SOL     OW28957   4.076   9.806   3.057
 6208SOL    HW128958   4.155   9.775   3.005
 6208SOL    HW228959   4.089   9.786   3.154
 6209SOL     OW28960   7.723   1.340   2.674
 6209SOL    HW128961   7.728   1.426   2.624
 6209SOL    HW228962   7.727   1.357   2.772
 6210SOL     OW28963   3.838   9.569   2.560
 6210SOL    HW128964   3.905   9.633   2.598
 6210SOL    HW228965   3.812   9.503   2.631
 6211SOL     OW28966   4.436   4.828   1.815
 6211SOL    HW128967   4.356   4.769   1.801
 6211SOL    HW228968   4.519   4.772   1.813
 6212SOL     OW28969   1.276   5.244   2.708
 6212SOL    HW128970   1.236   5.322   2.659
 6212SOL    HW228971   1.205   5.175   2.723
 6213SOL     OW28972   2.077   6.489   0.427
 6213SOL    HW128973   2.157   6.543   0.402
 6213SOL    HW228974   2.018   6.477   0.347
 6214SOL     OW28975   3.598   2.225   1.246
 6214SOL    HW128976   3.556   2.217   1.336
 6214SOL    HW228977   3.554   2.298   1.194
 6215SOL     OW28978   3.879   3.550   0.425
 6215SOL    HW128979   3.924   3.626   0.378
 6215SOL    HW228980   3.902   3.552   0.522
 6216SOL     OW28981   1.151   9.755   2.376
 6216SOL    HW128982   1.126   9.827   2.440
 6216SOL    HW228983   1.208   9.793   2.303
 6217SOL     OW28984   4.653   8.506   1.095
 6217SOL    HW128985   4.616   8.413   1.108
 6217SOL    HW228986   4.738   8.515   1.146
 6218SOL     OW28987   2.941   9.071   1.365
 6218SOL    HW128988   2.849   9.040   1.390
 6218SOL    HW228989   2.955   9.163   1.399
 6219SOL     OW28990   1.589   0.422   2.123
 6219SOL    HW128991   1.617   0.375   2.040
 6219SOL    HW228992   1.596   0.360   2.201
 6220SOL     OW28993   3.549   4.944   1.142
 6220SOL    HW128994   3.623   4.884   1.171
 6220SOL    HW228995   3.565   5.036   1.178
 6221SOL     OW28996   1.193   9.876   0.551
 6221SOL    HW128997   1.185   9.798   0.613
 6221SOL    HW228998   1.281   9.872   0.504
 6222SOL     OW28999   1.087   8.544   1.224
 6222SOL    HW129000   1.086   8.465   1.163
 6222SOL    HW229001   0.995   8.580   1.234
 6223SOL     OW29002   2.010   4.681   0.217
 6223SOL    HW129003   1.990   4.583   0.216
 6223SOL    HW229004   1.926   4.732   0.237
 6224SOL     OW29005   8.353   1.627   0.984
 6224SOL    HW129006   8.379   1.547   0.931
 6224SOL    HW229007   8.309   1.597   1.069
 6225SOL     OW29008   3.611   4.787   0.519
 6225SOL    HW129009   3.640   4.728   0.594
 6225SOL    HW229010   3.523   4.829   0.542
 6226SOL     OW29011   3.470   2.241   1.486
 6226SOL    HW129012   3.494   2.336   1.507
 6226SOL    HW229013   3.373   2.236   1.461
 6227SOL     OW29014   0.355   0.649   0.559
 6227SOL    HW129015   0.318   0.584   0.492
 6227SOL    HW229016   0.287   0.718   0.581
 6228SOL     OW29017   1.381   6.229   0.346
 6228SOL    HW129018   1.438   6.196   0.421
 6228SOL    HW229019   1.289   6.191   0.355
 6229SOL     OW29020   2.263   5.622   0.143
 6229SOL    HW129021   2.289   5.525   0.138
 6229SOL    HW229022   2.344   5.677   0.161
 6230SOL     OW29023   2.654   2.627   2.853
 6230SOL    HW129024   2.601   2.694   2.905
 6230SOL    HW229025   2.634   2.636   2.755
 6231SOL     OW29026   7.874   0.136   0.496
 6231SOL    HW129027   7.786   0.152   0.451
 6231SOL    HW229028   7.858   0.090   0.584
 6232SOL     OW29029   7.684   3.221   1.053
 6232SOL    HW129030   7.671   3.145   0.989
 6232SOL    HW229031   7.595   3.249   1.091
 6233SOL     OW29032   2.334   9.009   2.351
 6233SOL    HW129033   2.306   9.009   2.255
 6233SOL    HW229034   2.434   9.008   2.357
 6234SOL     OW29035   8.203   5.441   2.696
 6234SOL    HW129036   8.285   5.389   2.672
 6234SOL    HW229037   8.204   5.462   2.794
 6235SOL     OW29038   3.093   4.220   0.687
 6235SOL    HW129039   3.019   4.196   0.624
 6235SOL    HW229040   3.161   4.275   0.639
 6236SOL     OW29041   9.478   5.265   0.619
 6236SOL    HW129042   9.505   5.195   0.686
 6236SOL    HW229043   9.560   5.312   0.585
 6237SOL     OW29044   8.040   5.675   1.888
 6237SOL    HW129045   7.981   5.707   1.813
 6237SOL    HW229046   7.988   5.675   1.973
 6238SOL     OW29047   0.339   7.678   3.018
 6238SOL    HW129048   0.250   7.725   3.023
 6238SOL    HW229049   0.402   7.734   2.965
 6239SOL     OW29050   4.013   3.482   2.677
 6239SOL    HW129051   3.964   3.440   2.754
 6239SOL    HW229052   3.947   3.516   2.610
 6240SOL     OW29053   1.382   6.847   1.805
 6240SOL    HW129054   1.341   6.874   1.892
 6240SOL    HW229055   1.473   6.889   1.797
 6241SOL     OW29056   2.405   9.933   3.118
 6241SOL    HW129057   2.456   0.019   3.116
 6241SOL    HW229058   2.313   9.948   3.081
 6242SOL     OW29059   4.115   8.459   1.520
 6242SOL    HW129060   4.173   8.426   1.445
 6242SOL    HW229061   4.160   8.537   1.565
 6243SOL     OW29062   7.714   9.063   1.472
 6243SOL    HW129063   7.656   9.068   1.554
 6243SOL    HW229064   7.718   8.968   1.441
 6244SOL     OW29065   3.674   6.821   0.044
 6244SOL    HW129066   3.583   6.844   0.008
 6244SOL    HW229067   3.724   6.905   0.063
 6245SOL     OW29068   2.819   6.836   1.315
 6245SOL    HW129069   2.912   6.832   1.278
 6245SOL    HW229070   2.783   6.743   1.323
 6246SOL     OW29071   4.734   8.023   2.936
 6246SOL    HW129072   4.691   8.026   2.845
 6246SOL    HW229073   4.708   7.939   2.982
 6247SOL     OW29074   2.446   4.654   0.230
 6247SOL    HW129075   2.367   4.709   0.204
 6247SOL    HW229076   2.437   4.626   0.326
 6248SOL     OW29077   1.749   7.669   1.916
 6248SOL    HW129078   1.752   7.573   1.888
 6248SOL    HW229079   1.658   7.706   1.898
 6249SOL     OW29080   3.159   0.716   1.161
 6249SOL    HW129081   3.243   0.667   1.140
 6249SOL    HW229082   3.174   0.814   1.151
 6250SOL     OW29083   9.750   6.354   0.412
 6250SOL    HW129084   9.708   6.268   0.381
 6250SOL    HW229085   9.679   6.420   0.435
 6251SOL     OW29086   9.845   0.578   1.556
 6251SOL    HW129087   9.896   0.661   1.536
 6251SOL    HW229088   9.802   0.586   1.646
 6252SOL     OW29089   3.479   0.983   1.192
 6252SOL    HW129090   3.395   0.980   1.138
 6252SOL    HW229091   3.483   0.903   1.252
 6253SOL     OW29092   9.341   8.872   0.160
 6253SOL    HW129093   9.309   8.789   0.206
 6253SOL    HW229094   9.407   8.919   0.219
 6254SOL     OW29095   3.791   7.938   2.427
 6254SOL    HW129096   3.709   7.892   2.393
 6254SOL    HW229097   3.848   7.872   2.476
 6255SOL     OW29098   3.555   1.358   2.573
 6255SOL    HW129099   3.584   1.262   2.580
 6255SOL    HW229100   3.602   1.412   2.642
 6256SOL     OW29101   3.301   9.614   0.045
 6256SOL    HW129102   3.205   9.643   0.051
 6256SOL    HW229103   3.354   9.661   0.116
 6257SOL     OW29104   9.108   3.371   0.997
 6257SOL    HW129105   9.128   3.426   1.078
 6257SOL    HW229106   9.061   3.428   0.929
 6258SOL     OW29107   0.203   0.087   1.138
 6258SOL    HW129108   0.105   0.067   1.128
 6258SOL    HW229109   0.240   0.037   1.216
 6259SOL     OW29110   4.288   7.396   0.499
 6259SOL    HW129111   4.216   7.331   0.474
 6259SOL    HW229112   4.307   7.387   0.597
 6260SOL     OW29113   7.697   2.222   0.152
 6260SOL    HW129114   7.767   2.153   0.135
 6260SOL    HW229115   7.719   2.305   0.101
 6261SOL     OW29116   9.827   9.250   2.966
 6261SOL    HW129117   9.842   9.170   2.907
 6261SOL    HW229118   9.745   9.235   3.022
 6262SOL     OW29119   0.627   7.842   0.174
 6262SOL    HW129120   0.712   7.798   0.143
 6262SOL    HW229121   0.619   7.830   0.273
 6263SOL     OW29122   9.255   8.641   0.297
 6263SOL    HW129123   9.299   8.557   0.265
 6263SOL    HW229124   9.156   8.630   0.294
 6264SOL     OW29125   3.479   3.220   0.267
 6264SOL    HW129126   3.571   3.249   0.294
 6264SOL    HW229127   3.484   3.132   0.220
 6265SOL     OW29128   3.476   0.542   2.369
 6265SOL    HW129129   3.426   0.465   2.408
 6265SOL    HW229130   3.571   0.516   2.354
 6266SOL     OW29131   4.769   9.165   0.490
 6266SOL    HW129132   4.754   9.070   0.516
 6266SOL    HW229133   4.687   9.219   0.509
 6267SOL     OW29134   5.201   0.146   3.196
 6267SOL    HW129135   5.206   0.116   3.291
 6267SOL    HW229136   5.292   0.141   3.155
 6268SOL     OW29137   7.560   8.282   2.252
 6268SOL    HW129138   7.597   8.266   2.344
 6268SOL    HW229139   7.471   8.329   2.260
 6269SOL     OW29140   0.358   5.803   1.186
 6269SOL    HW129141   0.329   5.863   1.112
 6269SOL    HW229142   0.432   5.744   1.155
 6270SOL     OW29143   8.664   2.943   0.586
 6270SOL    HW129144   8.734   3.014   0.575
 6270SOL    HW229145   8.689   2.882   0.661
 6271SOL     OW29146   2.852   6.904   3.052
 6271SOL    HW129147   2.786   6.829   3.051
 6271SOL    HW229148   2.933   6.876   3.103
 6272SOL     OW29149   1.093   0.311   3.132
 6272SOL    HW129150   1.112   0.318   3.229
 6272SOL    HW229151   1.147   0.378   3.082
 6273SOL     OW29152   9.696   8.109   0.683
 6273SOL    HW129153   9.684   8.169   0.604
 6273SOL    HW229154   9.611   8.059   0.700
 6274SOL     OW29155   4.116   8.890   1.644
 6274SOL    HW129156   4.107   8.970   1.704
 6274SOL    HW229157   4.170   8.915   1.563
 6275SOL     OW29158   0.521   3.683   2.570
 6275SOL    HW129159   0.483   3.748   2.504
 6275SOL    HW229160   0.519   3.723   2.661
 6276SOL     OW29161   3.538   8.494   1.444
 6276SOL    HW129162   3.483   8.554   1.502
 6276SOL    HW229163   3.585   8.427   1.501
 6277SOL     OW29164   2.496   0.120   2.639
 6277SOL    HW129165   2.515   0.036   2.588
 6277SOL    HW229166   2.534   0.199   2.591
 6278SOL     OW29167   9.002   3.993   1.705
 6278SOL    HW129168   9.078   4.017   1.644
 6278SOL    HW229169   9.019   3.904   1.747
 6279SOL     OW29170   2.680   9.303   2.999
 6279SOL    HW129171   2.642   9.395   2.988
 6279SOL    HW229172   2.609   9.241   3.033
 6280SOL     OW29173   3.282   5.397   0.187
 6280SOL    HW129174   3.326   5.309   0.171
 6280SOL    HW229175   3.183   5.387   0.176
 6281SOL     OW29176   1.453   8.468   2.720
 6281SOL    HW129177   1.494   8.554   2.750
 6281SOL    HW229178   1.381   8.486   2.654
 6282SOL     OW29179   8.248   1.624   1.950
 6282SOL    HW129180   8.260   1.630   2.050
 6282SOL    HW229181   8.151   1.620   1.928
 6283SOL     OW29182   0.163   0.059   0.203
 6283SOL    HW129183   0.145   9.963   0.180
 6283SOL    HW229184   0.078   0.111   0.197
 6284SOL     OW29185   0.492   9.951   2.876
 6284SOL    HW129186   0.449   9.888   2.940
 6284SOL    HW229187   0.557   9.900   2.818
 6285SOL     OW29188   7.590   8.890   2.249
 6285SOL    HW129189   7.566   8.984   2.273
 6285SOL    HW229190   7.638   8.890   2.162
 6286SOL     OW29191   2.941   1.025   2.740
 6286SOL    HW129192   3.032   1.068   2.734
 6286SOL    HW229193   2.874   1.092   2.772
 6287SOL     OW29194   3.004   1.789   2.028
 6287SOL    HW129195   2.932   1.824   2.089
 6287SOL    HW229196   3.038   1.702   2.063
 6288SOL     OW29197   4.826   8.969   1.745
 6288SOL    HW129198   4.817   8.907   1.823
 6288SOL    HW229199   4.846   9.062   1.778
 6289SOL     OW29200   1.163   4.953   2.514
 6289SOL    HW129201   1.136   4.984   2.606
 6289SOL    HW229202   1.108   5.000   2.445
 6290SOL     OW29203   0.098   5.168   2.698
 6290SOL    HW129204   0.085   5.233   2.772
 6290SOL    HW229205   0.065   5.207   2.612
 6291SOL     OW29206   5.609   9.064   2.814
 6291SOL    HW129207   5.638   9.129   2.744
 6291SOL    HW229208   5.672   8.987   2.816
 6292SOL     OW29209   2.210   2.536   2.797
 6292SOL    HW129210   2.121   2.502   2.825
 6292SOL    HW229211   2.279   2.507   2.863
 6293SOL     OW29212   0.019   8.364   0.859
 6293SOL    HW129213   0.107   8.354   0.904
 6293SOL    HW229214   0.031   8.408   0.771
 6294SOL     OW29215   8.261   6.809   2.600
 6294SOL    HW129216   8.192   6.860   2.549
 6294SOL    HW229217   8.222   6.775   2.685
 6295SOL     OW29218   7.822   9.489   1.353
 6295SOL    HW129219   7.820   9.430   1.433
 6295SOL    HW229220   7.763   9.451   1.282
 6296SOL     OW29221   9.802   6.556   1.523
 6296SOL    HW129222   9.845   6.638   1.562
 6296SOL    HW229223   9.873   6.498   1.483
 6297SOL     OW29224   3.864   8.882   1.532
 6297SOL    HW129225   3.816   8.796   1.541
 6297SOL    HW229226   3.955   8.874   1.574
 6298SOL     OW29227   3.724   7.140   1.157
 6298SOL    HW129228   3.719   7.191   1.242
 6298SOL    HW229229   3.659   7.178   1.091
 6299SOL     OW29230   1.455   5.889   2.951
 6299SOL    HW129231   1.401   5.880   3.035
 6299SOL    HW229232   1.396   5.870   2.872
 6300SOL     OW29233   0.233   4.954   2.794
 6300SOL    HW129234   0.329   4.971   2.772
 6300SOL    HW229235   0.177   5.030   2.761
 6301SOL     OW29236   0.789   3.887   1.981
 6301SOL    HW129237   0.858   3.882   2.053
 6301SOL    HW229238   0.814   3.957   1.914
 6302SOL     OW29239   9.479   4.707   1.261
 6302SOL    HW129240   9.400   4.713   1.200
 6302SOL    HW229241   9.563   4.722   1.209
 6303SOL     OW29242   9.606   1.112   0.249
 6303SOL    HW129243   9.678   1.048   0.222
 6303SOL    HW229244   9.536   1.064   0.302
 6304SOL     OW29245   4.105   2.771   0.830
 6304SOL    HW129246   4.066   2.787   0.921
 6304SOL    HW229247   4.105   2.856   0.778
 6305SOL     OW29248   2.594   9.972   2.849
 6305SOL    HW129249   2.556   0.028   2.775
 6305SOL    HW229250   2.543   9.887   2.856
 6306SOL     OW29251   4.199   3.031   1.953
 6306SOL    HW129252   4.271   3.046   2.021
 6306SOL    HW229253   4.116   3.078   1.981
 6307SOL     OW29254   8.929   4.838   1.949
 6307SOL    HW129255   8.929   4.765   1.881
 6307SOL    HW229256   8.977   4.918   1.912
 6308SOL     OW29257   8.194   0.968   1.985
 6308SOL    HW129258   8.288   0.998   1.973
 6308SOL    HW229259   8.150   1.025   2.055
 6309SOL     OW29260   2.979   0.521   2.276
 6309SOL    HW129261   2.998   0.601   2.332
 6309SOL    HW229262   3.040   0.446   2.302
 6310SOL     OW29263   9.144   5.919   0.705
 6310SOL    HW129264   9.203   5.958   0.775
 6310SOL    HW229265   9.061   5.973   0.698
 6311SOL     OW29266   8.372   2.573   0.603
 6311SOL    HW129267   8.462   2.565   0.560
 6311SOL    HW229268   8.304   2.593   0.534
 6312SOL     OW29269   3.023   8.340   2.085
 6312SOL    HW129270   3.107   8.374   2.126
 6312SOL    HW229271   3.022   8.362   1.987
 6313SOL     OW29272   8.367   7.221   2.099
 6313SOL    HW129273   8.314   7.194   2.180
 6313SOL    HW229274   8.351   7.156   2.025
 6314SOL     OW29275   4.243   2.210   0.826
 6314SOL    HW129276   4.172   2.234   0.759
 6314SOL    HW229277   4.258   2.287   0.887
 6315SOL     OW29278   1.173   4.451   0.236
 6315SOL    HW129279   1.151   4.549   0.234
 6315SOL    HW229280   1.272   4.440   0.227
 6316SOL     OW29281   2.957   4.806   1.419
 6316SOL    HW129282   2.967   4.904   1.432
 6316SOL    HW229283   2.882   4.788   1.355
 6317SOL     OW29284   1.452   8.690   1.523
 6317SOL    HW129285   1.383   8.621   1.501
 6317SOL    HW229286   1.416   8.752   1.593
 6318SOL     OW29287   9.591   4.391   2.909
 6318SOL    HW129288   9.610   4.329   2.833
 6318SOL    HW229289   9.673   4.400   2.966
 6319SOL     OW29290   2.648   4.986   1.817
 6319SOL    HW129291   2.578   4.917   1.801
 6319SOL    HW229292   2.611   5.060   1.874
 6320SOL     OW29293   4.110   7.055   2.722
 6320SOL    HW129294   4.136   7.149   2.742
 6320SOL    HW229295   4.057   7.052   2.637
 6321SOL     OW29296   9.276   4.752   1.085
 6321SOL    HW129297   9.192   4.743   1.139
 6321SOL    HW229298   9.262   4.711   0.995
 6322SOL     OW29299   3.727   9.227   2.632
 6322SOL    HW129300   3.775   9.291   2.692
 6322SOL    HW229301   3.629   9.250   2.630
 6323SOL     OW29302   0.354   8.200   2.326
 6323SOL    HW129303   0.375   8.265   2.399
 6323SOL    HW229304   0.392   8.234   2.240
 6324SOL     OW29305   0.901   0.344   0.764
 6324SOL    HW129306   0.942   0.420   0.713
 6324SOL    HW229307   0.968   0.272   0.776
 6325SOL     OW29308   1.470   5.116   1.024
 6325SOL    HW129309   1.370   5.116   1.027
 6325SOL    HW229310   1.506   5.112   1.118
 6326SOL     OW29311   3.131   1.062   0.113
 6326SOL    HW129312   3.041   1.081   0.153
 6326SOL    HW229313   3.155   0.967   0.132
 6327SOL     OW29314   9.890   2.766   0.307
 6327SOL    HW129315   9.932   2.761   0.217
 6327SOL    HW229316   9.791   2.773   0.297
 6328SOL     OW29317   4.051   2.770   2.824
 6328SOL    HW129318   4.001   2.823   2.892
 6328SOL    HW229319   4.005   2.779   2.735
 6329SOL     OW29320   8.162   7.404   3.096
 6329SOL    HW129321   8.120   7.471   3.158
 6329SOL    HW229322   8.262   7.412   3.102
 6330SOL     OW29323   3.445   2.430   1.149
 6330SOL    HW129324   3.361   2.394   1.109
 6330SOL    HW229325   3.481   2.502   1.091
 6331SOL     OW29326   2.061   7.782   2.214
 6331SOL    HW129327   2.065   7.866   2.268
 6331SOL    HW229328   1.967   7.747   2.214
 6332SOL     OW29329   1.317   8.764   2.029
 6332SOL    HW129330   1.352   8.675   2.059
 6332SOL    HW229331   1.330   8.773   1.930
 6333SOL     OW29332   7.537   2.881   0.641
 6333SOL    HW129333   7.490   2.953   0.589
 6333SOL    HW229334   7.489   2.794   0.629
 6334SOL     OW29335   3.328   0.657   1.958
 6334SOL    HW129336   3.370   0.640   1.868
 6334SOL    HW229337   3.310   0.755   1.968
 6335SOL     OW29338   9.910   9.837   1.309
 6335SOL    HW129339   9.918   9.743   1.278
 6335SOL    HW229340   9.920   9.899   1.232
 6336SOL     OW29341   0.514   0.849   1.885
 6336SOL    HW129342   0.536   0.866   1.981
 6336SOL    HW229343   0.545   0.757   1.859
 6337SOL     OW29344   2.166   2.001   0.718
 6337SOL    HW129345   2.128   2.019   0.627
 6337SOL    HW229346   2.264   1.986   0.711
 6338SOL     OW29347   3.721   9.770   2.413
 6338SOL    HW129348   3.752   9.696   2.472
 6338SOL    HW229349   3.725   9.856   2.462
 6339SOL     OW29350   8.726   6.201   1.645
 6339SOL    HW129351   8.723   6.298   1.666
 6339SOL    HW229352   8.658   6.152   1.699
 6340SOL     OW29353   9.099   4.848   0.674
 6340SOL    HW129354   9.043   4.794   0.611
 6340SOL    HW229355   9.182   4.877   0.627
 6341SOL     OW29356   3.717   2.558   1.975
 6341SOL    HW129357   3.727   2.471   2.024
 6341SOL    HW229358   3.792   2.619   2.001
 6342SOL     OW29359   2.378   0.365   0.279
 6342SOL    HW129360   2.412   0.413   0.360
 6342SOL    HW229361   2.308   0.421   0.235
 6343SOL     OW29362   6.748   7.980   2.812
 6343SOL    HW129363   6.790   8.023   2.732
 6343SOL    HW229364   6.668   7.929   2.784
 6344SOL     OW29365   7.761   8.819   2.696
 6344SOL    HW129366   7.769   8.834   2.597
 6344SOL    HW229367   7.846   8.779   2.730
 6345SOL     OW29368   2.207   0.068   1.712
 6345SOL    HW129369   2.226   0.047   1.808
 6345SOL    HW229370   2.250   0.000   1.653
 6346SOL     OW29371   8.237   0.381   1.569
 6346SOL    HW129372   8.324   0.420   1.540
 6346SOL    HW229373   8.252   0.317   1.645
 6347SOL     OW29374   2.154   6.951   2.716
 6347SOL    HW129375   2.106   6.988   2.796
 6347SOL    HW229376   2.087   6.908   2.654
 6348SOL     OW29377   8.719   8.399   2.495
 6348SOL    HW129378   8.779   8.368   2.421
 6348SOL    HW229379   8.628   8.418   2.458
 6349SOL     OW29380   1.826   7.404   2.694
 6349SOL    HW129381   1.858   7.463   2.768
 6349SOL    HW229382   1.772   7.459   2.630
 6350SOL     OW29383   8.995   7.390   2.096
 6350SOL    HW129384   9.094   7.379   2.107
 6350SOL    HW229385   8.948   7.338   2.167
 6351SOL     OW29386   3.609   4.484   1.365
 6351SOL    HW129387   3.557   4.451   1.286
 6351SOL    HW229388   3.593   4.424   1.443
 6352SOL     OW29389   0.710   7.263   1.045
 6352SOL    HW129390   0.741   7.179   1.002
 6352SOL    HW229391   0.633   7.244   1.106
 6353SOL     OW29392   9.565   2.764   2.004
 6353SOL    HW129393   9.562   2.841   2.067
 6353SOL    HW229394   9.560   2.678   2.056
 6354SOL     OW29395   1.987   0.843   0.776
 6354SOL    HW129396   1.941   0.842   0.687
 6354SOL    HW229397   1.919   0.837   0.848
 6355SOL     OW29398   5.769   8.954   1.918
 6355SOL    HW129399   5.861   8.949   1.957
 6355SOL    HW229400   5.754   9.045   1.878
 6356SOL     OW29401   3.539   2.964   2.713
 6356SOL    HW129402   3.449   2.924   2.730
 6356SOL    HW229403   3.550   2.980   2.615
 6357SOL     OW29404   2.336   6.292   1.338
 6357SOL    HW129405   2.302   6.385   1.356
 6357SOL    HW229406   2.436   6.291   1.346
 6358SOL     OW29407   1.196   0.866   2.710
 6358SOL    HW129408   1.168   0.781   2.755
 6358SOL    HW229409   1.210   0.849   2.612
 6359SOL     OW29410   3.458   1.258   0.233
 6359SOL    HW129411   3.459   1.307   0.320
 6359SOL    HW229412   3.377   1.285   0.180
 6360SOL     OW29413   8.395   3.838   0.711
 6360SOL    HW129414   8.493   3.857   0.714
 6360SOL    HW229415   8.381   3.739   0.713
 6361SOL     OW29416   8.203   3.446   1.469
 6361SOL    HW129417   8.240   3.356   1.449
 6361SOL    HW229418   8.119   3.460   1.416
 6362SOL     OW29419   0.736   8.348   0.910
 6362SOL    HW129420   0.735   8.419   0.840
 6362SOL    HW229421   0.727   8.390   1.000
 6363SOL     OW29422   3.966   1.806   2.331
 6363SOL    HW129423   4.022   1.881   2.367
 6363SOL    HW229424   4.013   1.763   2.254
 6364SOL     OW29425   0.974   4.212   2.837
 6364SOL    HW129426   0.929   4.162   2.911
 6364SOL    HW229427   0.997   4.148   2.763
 6365SOL     OW29428   1.526   8.143   2.471
 6365SOL    HW129429   1.488   8.141   2.563
 6365SOL    HW229430   1.617   8.183   2.473
 6366SOL     OW29431   0.837   8.331   1.685
 6366SOL    HW129432   0.746   8.372   1.677
 6366SOL    HW229433   0.847   8.290   1.776
 6367SOL     OW29434   8.050   9.721   0.456
 6367SOL    HW129435   8.120   9.781   0.418
 6367SOL    HW229436   8.028   9.752   0.549
 6368SOL     OW29437   9.627   0.631   2.346
 6368SOL    HW129438   9.694   0.562   2.319
 6368SOL    HW229439   9.674   0.705   2.396
 6369SOL     OW29440   4.130   5.023   2.663
 6369SOL    HW129441   4.193   5.031   2.586
 6369SOL    HW229442   4.163   5.080   2.739
 6370SOL     OW29443   0.758   2.938   1.570
 6370SOL    HW129444   0.706   2.925   1.654
 6370SOL    HW229445   0.808   2.853   1.548
 6371SOL     OW29446   2.214   1.779   0.179
 6371SOL    HW129447   2.268   1.762   0.261
 6371SOL    HW229448   2.163   1.865   0.189
 6372SOL     OW29449   1.615   5.432   2.737
 6372SOL    HW129450   1.607   5.447   2.639
 6372SOL    HW229451   1.697   5.379   2.756
 6373SOL     OW29452   9.942   1.291   2.639
 6373SOL    HW129453   9.926   1.345   2.557
 6373SOL    HW229454   0.021   1.327   2.688
 6374SOL     OW29455   9.846   9.058   0.607
 6374SOL    HW129456   9.909   9.111   0.550
 6374SOL    HW229457   9.895   9.020   0.685
 6375SOL     OW29458   3.617   4.100   0.795
 6375SOL    HW129459   3.558   4.173   0.762
 6375SOL    HW229460   3.660   4.053   0.718
 6376SOL     OW29461   1.116   5.302   2.097
 6376SOL    HW129462   1.063   5.329   2.176
 6376SOL    HW229463   1.211   5.287   2.124
 6377SOL     OW29464   1.640   3.020   0.948
 6377SOL    HW129465   1.566   3.048   1.009
 6377SOL    HW229466   1.681   2.935   0.983
 6378SOL     OW29467   0.452   6.467   3.035
 6378SOL    HW129468   0.431   6.476   3.133
 6378SOL    HW229469   0.536   6.518   3.015
 6379SOL     OW29470   3.436   2.249   0.825
 6379SOL    HW129471   3.529   2.222   0.851
 6379SOL    HW229472   3.438   2.339   0.782
 6380SOL     OW29473   4.134   2.889   1.316
 6380SOL    HW129474   4.098   2.803   1.352
 6380SOL    HW229475   4.181   2.938   1.389
 6381SOL     OW29476   1.690   7.390   0.343
 6381SOL    HW129477   1.624   7.412   0.414
 6381SOL    HW229478   1.646   7.395   0.253
 6382SOL     OW29479   2.246   6.717   2.835
 6382SOL    HW129480   2.298   6.663   2.768
 6382SOL    HW229481   2.217   6.803   2.793
 6383SOL     OW29482   9.586   8.234   0.457
 6383SOL    HW129483   9.490   8.221   0.482
 6383SOL    HW229484   9.612   8.165   0.389
 6384SOL     OW29485   2.774   4.877   0.544
 6384SOL    HW129486   2.807   4.943   0.477
 6384SOL    HW229487   2.782   4.785   0.507
 6385SOL     OW29488   9.866   1.421   1.317
 6385SOL    HW129489   9.774   1.421   1.356
 6385SOL    HW229490   9.897   1.326   1.305
 6386SOL     OW29491   1.475   6.121   1.210
 6386SOL    HW129492   1.438   6.084   1.125
 6386SOL    HW229493   1.548   6.061   1.243
 6387SOL     OW29494   3.165   3.007   1.745
 6387SOL    HW129495   3.108   3.031   1.823
 6387SOL    HW229496   3.136   3.060   1.665
 6388SOL     OW29497   9.357   7.125   1.255
 6388SOL    HW129498   9.270   7.076   1.256
 6388SOL    HW229499   9.365   7.180   1.338
 6389SOL     OW29500   4.013   1.420   0.923
 6389SOL    HW129501   3.947   1.345   0.930
 6389SOL    HW229502   3.980   1.486   0.856
 6390SOL     OW29503   2.712   3.008   3.063
 6390SOL    HW129504   2.645   2.942   3.028
 6390SOL    HW229505   2.667   3.069   3.128
 6391SOL     OW29506   0.911   4.825   2.875
 6391SOL    HW129507   0.863   4.746   2.837
 6391SOL    HW229508   0.983   4.795   2.937
 6392SOL     OW29509   2.981   7.538   2.738
 6392SOL    HW129510   2.946   7.445   2.751
 6392SOL    HW229511   3.011   7.575   2.826
 6393SOL     OW29512   2.001   0.734   0.109
 6393SOL    HW129513   2.070   0.803   0.087
 6393SOL    HW229514   1.912   0.764   0.074
 6394SOL     OW29515   3.838   2.195   0.413
 6394SOL    HW129516   3.922   2.168   0.366
 6394SOL    HW229517   3.766   2.210   0.345
 6395SOL     OW29518   3.757   6.254   2.275
 6395SOL    HW129519   3.803   6.332   2.231
 6395SOL    HW229520   3.676   6.229   2.223
 6396SOL     OW29521   2.227   5.845   2.385
 6396SOL    HW129522   2.249   5.941   2.403
 6396SOL    HW229523   2.249   5.824   2.290
 6397SOL     OW29524   2.167   0.532   0.208
 6397SOL    HW129525   2.123   0.604   0.155
 6397SOL    HW229526   2.192   0.568   0.298
 6398SOL     OW29527   3.894   7.235   1.550
 6398SOL    HW129528   3.823   7.256   1.483
 6398SOL    HW229529   3.860   7.165   1.613
 6399SOL     OW29530   0.161   4.634   0.487
 6399SOL    HW129531   0.122   4.567   0.424
 6399SOL    HW229532   0.254   4.656   0.459
 6400SOL     OW29533   6.995   9.943   2.766
 6400SOL    HW129534   6.941   9.950   2.850
 6400SOL    HW229535   6.960   9.869   2.710
 6401SOL     OW29536   3.510   5.056   2.335
 6401SOL    HW129537   3.426   5.110   2.331
 6401SOL    HW229538   3.583   5.102   2.285
 6402SOL     OW29539   4.381   2.342   1.612
 6402SOL    HW129540   4.365   2.314   1.518
 6402SOL    HW229541   4.416   2.264   1.665
 6403SOL     OW29542   8.479   8.433   2.356
 6403SOL    HW129543   8.438   8.343   2.338
 6403SOL    HW229544   8.410   8.493   2.396
 6404SOL     OW29545   1.911   9.685   0.795
 6404SOL    HW129546   1.956   9.620   0.733
 6404SOL    HW229547   1.866   9.756   0.741
 6405SOL     OW29548   4.447   7.836   1.815
 6405SOL    HW129549   4.485   7.776   1.885
 6405SOL    HW229550   4.367   7.883   1.851
 6406SOL     OW29551   8.543   9.382   2.625
 6406SOL    HW129552   8.596   9.435   2.558
 6406SOL    HW229553   8.578   9.401   2.717
 6407SOL     OW29554   6.310   7.823   3.113
 6407SOL    HW129555   6.280   7.754   3.047
 6407SOL    HW229556   6.338   7.906   3.064
 6408SOL     OW29557   1.528   0.123   1.312
 6408SOL    HW129558   1.483   0.046   1.356
 6408SOL    HW229559   1.626   0.121   1.334
 6409SOL     OW29560   3.202   4.627   2.807
 6409SOL    HW129561   3.113   4.671   2.823
 6409SOL    HW229562   3.227   4.638   2.711
 6410SOL     OW29563   2.025   8.585   0.241
 6410SOL    HW129564   2.018   8.524   0.162
 6410SOL    HW229565   2.004   8.534   0.325
 6411SOL     OW29566   6.514   8.833   2.582
 6411SOL    HW129567   6.468   8.883   2.509
 6411SOL    HW229568   6.612   8.827   2.562
 6412SOL     OW29569   8.981   3.556   0.835
 6412SOL    HW129570   8.946   3.609   0.912
 6412SOL    HW229571   9.064   3.599   0.800
 6413SOL     OW29572   4.080   2.678   1.762
 6413SOL    HW129573   4.097   2.613   1.688
 6413SOL    HW229574   4.074   2.629   1.849
 6414SOL     OW29575   4.023   2.191   1.775
 6414SOL    HW129576   4.092   2.129   1.737
 6414SOL    HW229577   3.979   2.241   1.700
 6415SOL     OW29578   2.739   1.496   1.561
 6415SOL    HW129579   2.802   1.476   1.486
 6415SOL    HW229580   2.725   1.595   1.567
 6416SOL     OW29581   3.476   4.312   0.696
 6416SOL    HW129582   3.458   4.369   0.776
 6416SOL    HW229583   3.404   4.326   0.628
 6417SOL     OW29584   7.845   9.643   2.526
 6417SOL    HW129585   7.815   9.738   2.525
 6417SOL    HW229586   7.766   9.583   2.534
 6418SOL     OW29587   9.244   6.982   0.235
 6418SOL    HW129588   9.318   6.930   0.191
 6418SOL    HW229589   9.276   7.018   0.322
 6419SOL     OW29590   1.733   6.940   2.666
 6419SOL    HW129591   1.703   7.034   2.679
 6419SOL    HW229592   1.763   6.903   2.754
 6420SOL     OW29593   9.435   9.762   2.597
 6420SOL    HW129594   9.362   9.725   2.539
 6420SOL    HW229595   9.454   9.698   2.672
 6421SOL     OW29596   0.338   9.735   1.512
 6421SOL    HW129597   0.308   9.686   1.594
 6421SOL    HW229598   0.425   9.780   1.531
 6422SOL     OW29599   1.028   4.418   1.935
 6422SOL    HW129600   0.934   4.424   1.903
 6422SOL    HW229601   1.090   4.453   1.864
 6423SOL     OW29602   9.386   3.072   0.089
 6423SOL    HW129603   9.320   3.048   0.017
 6423SOL    HW229604   9.472   3.025   0.071
 6424SOL     OW29605   2.904   5.594   0.075
 6424SOL    HW129606   2.948   5.508   0.102
 6424SOL    HW229607   2.960   5.671   0.105
 6425SOL     OW29608   8.368   6.167   2.544
 6425SOL    HW129609   8.434   6.138   2.613
 6425SOL    HW229610   8.405   6.247   2.496
 6426SOL     OW29611   8.893   5.235   2.323
 6426SOL    HW129612   8.803   5.191   2.330
 6426SOL    HW229613   8.885   5.319   2.270
 6427SOL     OW29614   7.107   9.848   1.962
 6427SOL    HW129615   7.030   9.795   1.926
 6427SOL    HW229616   7.139   9.807   2.047
 6428SOL     OW29617   4.779   1.546   1.390
 6428SOL    HW129618   4.854   1.560   1.454
 6428SOL    HW229619   4.692   1.542   1.440
 6429SOL     OW29620   6.067   8.745   3.122
 6429SOL    HW129621   6.144   8.707   3.071
 6429SOL    HW229622   6.100   8.783   3.209
 6430SOL     OW29623   3.001   7.089   2.609
 6430SOL    HW129624   2.958   7.015   2.661
 6430SOL    HW229625   2.975   7.177   2.648
 6431SOL     OW29626   1.817   5.816   1.650
 6431SOL    HW129627   1.870   5.853   1.727
 6431SOL    HW229628   1.800   5.889   1.584
 6432SOL     OW29629   9.819   0.650   0.268
 6432SOL    HW129630   9.893   0.637   0.334
 6432SOL    HW229631   9.735   0.611   0.304
 6433SOL     OW29632   0.528   0.033   2.340
 6433SOL    HW129633   0.599   0.014   2.407
 6433SOL    HW229634   0.561   0.101   2.274
 6434SOL     OW29635   3.933   0.485   1.731
 6434SOL    HW129636   3.933   0.413   1.801
 6434SOL    HW229637   3.989   0.561   1.762
 6435SOL     OW29638   5.091   0.488   2.259
 6435SOL    HW129639   5.149   0.407   2.263
 6435SOL    HW229640   5.073   0.511   2.163
 6436SOL     OW29641   2.841   5.694   1.236
 6436SOL    HW129642   2.853   5.763   1.164
 6436SOL    HW229643   2.748   5.697   1.270
 6437SOL     OW29644   0.901   1.427   2.150
 6437SOL    HW129645   0.897   1.337   2.106
 6437SOL    HW229646   0.814   1.474   2.138
 6438SOL     OW29647   8.062   5.724   1.287
 6438SOL    HW129648   8.010   5.642   1.264
 6438SOL    HW229649   8.068   5.783   1.207
 6439SOL     OW29650   3.252   6.074   1.915
 6439SOL    HW129651   3.219   6.167   1.898
 6439SOL    HW229652   3.176   6.017   1.948
 6440SOL     OW29653   9.089   4.650   3.147
 6440SOL    HW129654   9.108   4.587   3.222
 6440SOL    HW229655   9.021   4.609   3.086
 6441SOL     OW29656   4.312   7.951   1.268
 6441SOL    HW129657   4.221   7.992   1.262
 6441SOL    HW229658   4.304   7.852   1.280
 6442SOL     OW29659   8.564   3.323   1.630
 6442SOL    HW129660   8.649   3.345   1.678
 6442SOL    HW229661   8.574   3.344   1.533
 6443SOL     OW29662   1.681   7.061   1.552
 6443SOL    HW129663   1.747   7.135   1.535
 6443SOL    HW229664   1.590   7.091   1.523
 6444SOL     OW29665   8.002   1.403   2.698
 6444SOL    HW129666   8.073   1.358   2.643
 6444SOL    HW229667   7.919   1.347   2.696
 6445SOL     OW29668   3.522   7.125   1.693
 6445SOL    HW129669   3.620   7.108   1.701
 6445SOL    HW229670   3.498   7.134   1.597
 6446SOL     OW29671   5.346   0.541   1.638
 6446SOL    HW129672   5.329   0.465   1.575
 6446SOL    HW229673   5.444   0.546   1.659
 6447SOL     OW29674   9.435   2.152   0.220
 6447SOL    HW129675   9.533   2.132   0.227
 6447SOL    HW229676   9.418   2.247   0.246
 6448SOL     OW29677   0.637   6.585   0.131
 6448SOL    HW129678   0.612   6.548   0.041
 6448SOL    HW229679   0.586   6.537   0.202
 6449SOL     OW29680   4.813   0.823   2.566
 6449SOL    HW129681   4.799   0.724   2.561
 6449SOL    HW229682   4.889   0.843   2.628
 6450SOL     OW29683   8.070   9.940   1.068
 6450SOL    HW129684   8.106   9.863   1.016
 6450SOL    HW229685   8.051   9.911   1.162
 6451SOL     OW29686   7.833   0.980   0.765
 6451SOL    HW129687   7.824   0.894   0.816
 6451SOL    HW229688   7.860   1.053   0.827
 6452SOL     OW29689   2.673   5.549   0.219
 6452SOL    HW129690   2.637   5.463   0.185
 6452SOL    HW229691   2.760   5.570   0.173
 6453SOL     OW29692   9.957   2.670   2.275
 6453SOL    HW129693   0.034   2.635   2.329
 6453SOL    HW229694   9.990   2.739   2.211
 6454SOL     OW29695   2.696   7.114   1.915
 6454SOL    HW129696   2.767   7.048   1.940
 6454SOL    HW229697   2.618   7.065   1.876
 6455SOL     OW29698   8.156   3.575   2.002
 6455SOL    HW129699   8.089   3.505   2.027
 6455SOL    HW229700   8.227   3.581   2.072
 6456SOL     OW29701   1.811   7.176   0.462
 6456SOL    HW129702   1.857   7.214   0.543
 6456SOL    HW229703   1.767   7.250   0.411
 6457SOL     OW29704   6.488   7.597   2.813
 6457SOL    HW129705   6.469   7.573   2.718
 6457SOL    HW229706   6.464   7.520   2.872
 6458SOL     OW29707   8.652   8.496   2.146
 6458SOL    HW129708   8.588   8.500   2.223
 6458SOL    HW229709   8.646   8.406   2.103
 6459SOL     OW29710   1.160   6.101   2.886
 6459SOL    HW129711   1.189   6.017   2.840
 6459SOL    HW229712   1.238   6.163   2.894
 6460SOL     OW29713   1.775   5.547   0.112
 6460SOL    HW129714   1.848   5.615   0.106
 6460SOL    HW229715   1.799   5.478   0.181
 6461SOL     OW29716   9.653   8.800   2.499
 6461SOL    HW129717   9.719   8.872   2.522
 6461SOL    HW229718   9.700   8.726   2.450
 6462SOL     OW29719   9.411   0.952   0.363
 6462SOL    HW129720   9.330   0.998   0.327
 6462SOL    HW229721   9.419   0.861   0.321
 6463SOL     OW29722   3.795   3.715   1.674
 6463SOL    HW129723   3.861   3.761   1.616
 6463SOL    HW229724   3.841   3.647   1.731
 6464SOL     OW29725   8.874   2.744   2.248
 6464SOL    HW129726   8.855   2.771   2.153
 6464SOL    HW229727   8.792   2.760   2.303
 6465SOL     OW29728   2.188   5.642   0.766
 6465SOL    HW129729   2.174   5.739   0.784
 6465SOL    HW229730   2.195   5.627   0.668
 6466SOL     OW29731   0.023   9.962   0.837
 6466SOL    HW129732   0.008   9.871   0.798
 6466SOL    HW229733   0.121   9.978   0.848
 6467SOL     OW29734   8.184   2.212   2.835
 6467SOL    HW129735   8.254   2.190   2.902
 6467SOL    HW229736   8.219   2.193   2.743
 6468SOL     OW29737   9.918   7.387   1.810
 6468SOL    HW129738   9.864   7.470   1.822
 6468SOL    HW229739   0.007   7.411   1.772
 6469SOL     OW29740   4.524   5.614   2.698
 6469SOL    HW129741   4.576   5.532   2.676
 6469SOL    HW229742   4.559   5.692   2.645
 6470SOL     OW29743   0.349   0.210   2.082
 6470SOL    HW129744   0.446   0.207   2.108
 6470SOL    HW229745   0.340   0.189   1.985
 6471SOL     OW29746   4.792   0.341   1.272
 6471SOL    HW129747   4.814   0.406   1.200
 6471SOL    HW229748   4.776   0.391   1.358
 6472SOL     OW29749   8.599   0.137   0.072
 6472SOL    HW129750   8.548   0.063   0.027
 6472SOL    HW229751   8.619   0.111   0.166
 6473SOL     OW29752   9.829   7.446   0.668
 6473SOL    HW129753   9.751   7.433   0.606
 6473SOL    HW229754   9.836   7.367   0.729
 6474SOL     OW29755   8.655   5.458   1.938
 6474SOL    HW129756   8.720   5.429   2.008
 6474SOL    HW229757   8.699   5.524   1.877
 6475SOL     OW29758   4.428   1.152   1.660
 6475SOL    HW129759   4.459   1.139   1.566
 6475SOL    HW229760   4.507   1.143   1.722
 6476SOL     OW29761   9.433   7.975   1.617
 6476SOL    HW129762   9.399   8.004   1.527
 6476SOL    HW229763   9.459   7.878   1.612
 6477SOL     OW29764   9.057   0.408   0.226
 6477SOL    HW129765   9.101   0.372   0.308
 6477SOL    HW229766   9.104   0.491   0.197
 6478SOL     OW29767   1.621   7.093   2.025
 6478SOL    HW129768   1.707   7.144   2.027
 6478SOL    HW229769   1.622   7.030   1.947
 6479SOL     OW29770   9.603   1.251   0.621
 6479SOL    HW129771   9.512   1.238   0.582
 6479SOL    HW229772   9.666   1.184   0.580
 6480SOL     OW29773   3.309   3.621   0.828
 6480SOL    HW129774   3.287   3.556   0.901
 6480SOL    HW229775   3.299   3.714   0.863
 6481SOL     OW29776   2.581   5.460   2.712
 6481SOL    HW129777   2.635   5.381   2.682
 6481SOL    HW229778   2.507   5.477   2.647
 6482SOL     OW29779   9.266   5.652   1.059
 6482SOL    HW129780   9.250   5.563   1.103
 6482SOL    HW229781   9.178   5.689   1.028
 6483SOL     OW29782   7.535   9.555   2.789
 6483SOL    HW129783   7.614   9.511   2.832
 6483SOL    HW229784   7.456   9.494   2.793
 6484SOL     OW29785   9.708   9.437   0.337
 6484SOL    HW129786   9.765   9.397   0.265
 6484SOL    HW229787   9.619   9.461   0.298
 6485SOL     OW29788   4.431   0.229   2.758
 6485SOL    HW129789   4.515   0.211   2.707
 6485SOL    HW229790   4.352   0.224   2.696
 6486SOL     OW29791   0.714   4.259   0.227
 6486SOL    HW129792   0.691   4.265   0.130
 6486SOL    HW229793   0.700   4.348   0.271
 6487SOL     OW29794   2.266   6.655   0.306
 6487SOL    HW129795   2.207   6.674   0.228
 6487SOL    HW229796   2.362   6.654   0.276
 6488SOL     OW29797   3.331   8.684   1.092
 6488SOL    HW129798   3.282   8.758   1.046
 6488SOL    HW229799   3.275   8.648   1.167
 6489SOL     OW29800   3.217   6.220   2.726
 6489SOL    HW129801   3.279   6.195   2.651
 6489SOL    HW229802   3.250   6.179   2.811
 6490SOL     OW29803   0.821   9.002   0.855
 6490SOL    HW129804   0.902   8.948   0.878
 6490SOL    HW229805   0.818   9.083   0.914
 6491SOL     OW29806   8.519   4.668   0.345
 6491SOL    HW129807   8.522   4.661   0.444
 6491SOL    HW229808   8.437   4.620   0.311
 6492SOL     OW29809   4.346   1.366   1.927
 6492SOL    HW129810   4.300   1.294   1.875
 6492SOL    HW229811   4.436   1.383   1.887
 6493SOL     OW29812   0.803   2.983   2.509
 6493SOL    HW129813   0.734   3.044   2.547
 6493SOL    HW229814   0.843   2.928   2.582
 6494SOL     OW29815   3.600   4.521   2.093
 6494SOL    HW129816   3.505   4.490   2.091
 6494SOL    HW229817   3.630   4.530   2.188
 6495SOL     OW29818   3.784   7.060   1.739
 6495SOL    HW129819   3.756   6.968   1.767
 6495SOL    HW229820   3.847   7.099   1.806
 6496SOL     OW29821   0.202   0.844   2.852
 6496SOL    HW129822   0.136   0.769   2.858
 6496SOL    HW229823   0.288   0.815   2.893
 6497SOL     OW29824   4.219   9.036   2.992
 6497SOL    HW129825   4.243   8.981   3.072
 6497SOL    HW229826   4.302   9.067   2.947
 6498SOL     OW29827   0.191   1.049   0.157
 6498SOL    HW129828   0.173   0.954   0.182
 6498SOL    HW229829   0.200   1.104   0.240
 6499SOL     OW29830   0.824   0.600   2.423
 6499SOL    HW129831   0.861   0.509   2.441
 6499SOL    HW229832   0.730   0.593   2.390
 6500SOL     OW29833   1.998   4.724   0.700
 6500SOL    HW129834   2.040   4.791   0.761
 6500SOL    HW229835   1.904   4.751   0.680
 6501SOL     OW29836   7.586   7.128   2.904
 6501SOL    HW129837   7.523   7.131   2.827
 6501SOL    HW229838   7.637   7.215   2.909
 6502SOL     OW29839   0.443   0.349   2.483
 6502SOL    HW129840   0.385   0.420   2.524
 6502SOL    HW229841   0.391   0.263   2.476
 6503SOL     OW29842   9.348   3.149   0.522
 6503SOL    HW129843   9.251   3.171   0.533
 6503SOL    HW229844   9.400   3.233   0.505
 6504SOL     OW29845   2.382   4.168   0.655
 6504SOL    HW129846   2.392   4.161   0.754
 6504SOL    HW229847   2.441   4.241   0.620
 6505SOL     OW29848   1.696   0.857   2.489
 6505SOL    HW129849   1.663   0.766   2.515
 6505SOL    HW229850   1.707   0.861   2.389
 6506SOL     OW29851   2.620   9.991   1.080
 6506SOL    HW129852   2.547   0.013   1.144
 6506SOL    HW229853   2.694   0.057   1.090
 6507SOL     OW29854   0.012   5.633   1.461
 6507SOL    HW129855   9.938   5.695   1.435
 6507SOL    HW229856   9.986   5.539   1.438
 6508SOL     OW29857   6.787   9.158   3.006
 6508SOL    HW129858   6.882   9.176   3.034
 6508SOL    HW229859   6.736   9.244   3.008
 6509SOL     OW29860   4.223   3.297   1.602
 6509SOL    HW129861   4.178   3.286   1.691
 6509SOL    HW229862   4.202   3.387   1.565
 6510SOL     OW29863   4.187   8.890   0.966
 6510SOL    HW129864   4.152   8.872   1.058
 6510SOL    HW229865   4.235   8.809   0.932
 6511SOL     OW29866   5.916   8.804   2.263
 6511SOL    HW129867   5.970   8.742   2.320
 6511SOL    HW229868   5.828   8.762   2.242
 6512SOL     OW29869   2.413   8.912   0.185
 6512SOL    HW129870   2.478   8.978   0.148
 6512SOL    HW229871   2.375   8.856   0.111
 6513SOL     OW29872   9.908   1.270   1.958
 6513SOL    HW129873   9.822   1.238   1.919
 6513SOL    HW229874   9.985   1.234   1.905
 6514SOL     OW29875   2.137   9.757   0.579
 6514SOL    HW129876   2.067   9.689   0.559
 6514SOL    HW229877   2.217   9.740   0.522
 6515SOL     OW29878   7.955   4.119   0.509
 6515SOL    HW129879   7.952   4.034   0.562
 6515SOL    HW229880   8.000   4.102   0.422
 6516SOL     OW29881   4.955   8.689   2.457
 6516SOL    HW129882   4.943   8.627   2.535
 6516SOL    HW229883   5.003   8.772   2.487
 6517SOL     OW29884   8.860   3.935   0.379
 6517SOL    HW129885   8.772   3.968   0.412
 6517SOL    HW229886   8.873   3.840   0.406
 6518SOL     OW29887   2.671   2.524   1.997
 6518SOL    HW129888   2.577   2.555   1.981
 6518SOL    HW229889   2.674   2.468   2.080
 6519SOL     OW29890   1.589   0.219   0.627
 6519SOL    HW129891   1.674   0.183   0.666
 6519SOL    HW229892   1.588   0.204   0.529
 6520SOL     OW29893   9.128   2.545   0.400
 6520SOL    HW129894   9.197   2.605   0.360
 6520SOL    HW229895   9.040   2.592   0.402
 6521SOL     OW29896   9.125   1.062   0.509
 6521SOL    HW129897   9.147   1.067   0.411
 6521SOL    HW229898   9.033   1.099   0.524
 6522SOL     OW29899   2.608   2.920   1.245
 6522SOL    HW129900   2.568   2.872   1.167
 6522SOL    HW229901   2.595   2.865   1.328
 6523SOL     OW29902   8.527   4.378   2.340
 6523SOL    HW129903   8.607   4.436   2.353
 6523SOL    HW229904   8.555   4.289   2.305
 6524SOL     OW29905   1.369   0.085   0.727
 6524SOL    HW129906   1.388   9.989   0.709
 6524SOL    HW229907   1.441   0.142   0.687
 6525SOL     OW29908   0.401   3.279   2.988
 6525SOL    HW129909   0.442   3.314   3.072
 6525SOL    HW229910   0.470   3.231   2.935
 6526SOL     OW29911   0.034   2.298   2.530
 6526SOL    HW129912   0.069   2.303   2.623
 6526SOL    HW229913   0.109   2.311   2.465
 6527SOL     OW29914   8.315   9.575   0.745
 6527SOL    HW129915   8.407   9.561   0.780
 6527SOL    HW229916   8.300   9.517   0.665
 6528SOL     OW29917   8.236   1.880   1.614
 6528SOL    HW129918   8.275   1.931   1.537
 6528SOL    HW229919   8.309   1.853   1.676
 6529SOL     OW29920   0.208   6.019   3.101
 6529SOL    HW129921   0.138   6.069   3.051
 6529SOL    HW229922   0.186   6.019   3.199
 6530SOL     OW29923   2.756   9.699   2.314
 6530SOL    HW129924   2.756   9.692   2.413
 6530SOL    HW229925   2.847   9.725   2.282
 6531SOL     OW29926   4.541   3.304   2.389
 6531SOL    HW129927   4.535   3.292   2.290
 6531SOL    HW229928   4.587   3.225   2.429
 6532SOL     OW29929   9.310   1.797   1.137
 6532SOL    HW129930   9.352   1.747   1.062
 6532SOL    HW229931   9.246   1.736   1.185
 6533SOL     OW29932   2.537   4.481   2.878
 6533SOL    HW129933   2.474   4.543   2.832
 6533SOL    HW229934   2.580   4.420   2.811
 6534SOL     OW29935   0.887   0.228   0.476
 6534SOL    HW129936   0.851   0.253   0.386
 6534SOL    HW229937   0.882   0.308   0.537
 6535SOL     OW29938   2.300   9.416   0.847
 6535SOL    HW129939   2.331   9.361   0.925
 6535SOL    HW229940   2.358   9.496   0.837
 6536SOL     OW29941   3.726   8.368   0.918
 6536SOL    HW129942   3.634   8.357   0.955
 6536SOL    HW229943   3.775   8.281   0.924
 6537SOL     OW29944   0.678   3.860   1.088
 6537SOL    HW129945   0.661   3.769   1.048
 6537SOL    HW229946   0.776   3.872   1.104
 6538SOL     OW29947   8.987   6.553   2.417
 6538SOL    HW129948   9.004   6.536   2.320
 6538SOL    HW229949   8.900   6.601   2.428
 6539SOL     OW29950   9.705   0.204   1.495
 6539SOL    HW129951   9.794   0.246   1.507
 6539SOL    HW229952   9.663   0.238   1.411
 6540SOL     OW29953   1.803   3.625   1.017
 6540SOL    HW129954   1.824   3.681   1.097
 6540SOL    HW229955   1.779   3.532   1.047
 6541SOL     OW29956   8.700   2.414   2.995
 6541SOL    HW129957   8.762   2.493   2.991
 6541SOL    HW229958   8.707   2.370   3.084
 6542SOL     OW29959   3.694   4.496   2.347
 6542SOL    HW129960   3.654   4.558   2.414
 6542SOL    HW229961   3.793   4.492   2.359
 6543SOL     OW29962   3.483   2.978   0.160
 6543SOL    HW129963   3.577   2.942   0.164
 6543SOL    HW229964   3.420   2.909   0.197
 6544SOL     OW29965   9.063   2.678   0.821
 6544SOL    HW129966   8.964   2.692   0.817
 6544SOL    HW229967   9.106   2.720   0.740
 6545SOL     OW29968   3.333   8.382   1.690
 6545SOL    HW129969   3.392   8.338   1.757
 6545SOL    HW229970   3.317   8.318   1.614
 6546SOL     OW29971   3.148   6.326   1.878
 6546SOL    HW129972   3.145   6.402   1.812
 6546SOL    HW229973   3.056   6.309   1.912
 6547SOL     OW29974   8.902   7.104   3.127
 6547SOL    HW129975   8.893   7.075   3.031
 6547SOL    HW229976   8.850   7.041   3.185
 6548SOL     OW29977   9.349   9.711   2.199
 6548SOL    HW129978   9.438   9.752   2.220
 6548SOL    HW229979   9.306   9.680   2.284
 6549SOL     OW29980   0.356   9.461   2.222
 6549SOL    HW129981   0.435   9.406   2.197
 6549SOL    HW229982   0.379   9.520   2.299
 6550SOL     OW29983   5.860   7.147   2.657
 6550SOL    HW129984   5.831   7.218   2.592
 6550SOL    HW229985   5.820   7.166   2.747
 6551SOL     OW29986   8.616   4.790   2.945
 6551SOL    HW129987   8.614   4.712   2.883
 6551SOL    HW229988   8.707   4.831   2.943
 6552SOL     OW29989   3.773   2.967   2.095
 6552SOL    HW129990   3.731   2.949   2.007
 6552SOL    HW229991   3.708   3.015   2.154
 6553SOL     OW29992   1.096   3.263   0.160
 6553SOL    HW129993   1.134   3.335   0.102
 6553SOL    HW229994   1.041   3.304   0.233
 6554SOL     OW29995   1.546   7.003   0.273
 6554SOL    HW129996   1.645   7.005   0.257
 6554SOL    HW229997   1.525   6.942   0.349
 6555SOL     OW29998   4.029   3.112   2.724
 6555SOL    HW129999   4.120   3.095   2.687
 6555SOL    HW230000   3.973   3.159   2.656
 6556SOL     OW30001   1.823   9.636   1.904
 6556SOL    HW130002   1.829   9.735   1.889
 6556SOL    HW230003   1.898   9.608   1.965
 6557SOL     OW30004   8.375   0.179   1.061
 6557SOL    HW130005   8.458   0.232   1.077
 6557SOL    HW230006   8.378   0.094   1.114
 6558SOL     OW30007   4.091   3.769   1.955
 6558SOL    HW130008   4.131   3.768   1.864
 6558SOL    HW230009   4.136   3.839   2.011
 6559SOL     OW30010   8.995   1.981   0.169
 6559SOL    HW130011   8.992   2.034   0.084
 6559SOL    HW230012   8.972   2.040   0.246
 6560SOL     OW30013   9.598   4.310   0.379
 6560SOL    HW130014   9.505   4.325   0.348
 6560SOL    HW230015   9.615   4.212   0.390
 6561SOL     OW30016   8.594   1.783   2.979
 6561SOL    HW130017   8.567   1.807   2.886
 6561SOL    HW230018   8.632   1.690   2.980
 6562SOL     OW30019   7.280   9.751   2.657
 6562SOL    HW130020   7.294   9.738   2.755
 6562SOL    HW230021   7.362   9.791   2.616
 6563SOL     OW30022   2.517   3.683   0.534
 6563SOL    HW130023   2.469   3.618   0.475
 6563SOL    HW230024   2.471   3.771   0.532
 6564SOL     OW30025   0.851   3.308   1.865
 6564SOL    HW130026   0.779   3.377   1.855
 6564SOL    HW230027   0.865   3.261   1.778
 6565SOL     OW30028   1.660   3.050   0.459
 6565SOL    HW130029   1.600   3.071   0.383
 6565SOL    HW230030   1.609   3.056   0.545
 6566SOL     OW30031   2.417   2.745   1.684
 6566SOL    HW130032   2.493   2.751   1.618
 6566SOL    HW230033   2.338   2.704   1.640
 6567SOL     OW30034   8.468   4.978   0.902
 6567SOL    HW130035   8.539   5.038   0.863
 6567SOL    HW230036   8.421   4.929   0.829
 6568SOL     OW30037   1.078   7.788   2.759
 6568SOL    HW130038   1.032   7.787   2.848
 6568SOL    HW230039   1.010   7.798   2.687
 6569SOL     OW30040   2.890   3.927   2.429
 6569SOL    HW130041   2.870   3.975   2.514
 6569SOL    HW230042   2.966   3.864   2.443
 6570SOL     OW30043   9.421   1.630   0.953
 6570SOL    HW130044   9.383   1.567   0.886
 6570SOL    HW230045   9.520   1.617   0.958
 6571SOL     OW30046   0.614   6.394   2.185
 6571SOL    HW130047   0.525   6.398   2.231
 6571SOL    HW230048   0.672   6.327   2.231
 6572SOL     OW30049   8.821   8.672   2.268
 6572SOL    HW130050   8.764   8.706   2.343
 6572SOL    HW230051   8.770   8.605   2.215
 6573SOL     OW30052   0.488   7.185   1.183
 6573SOL    HW130053   0.464   7.105   1.128
 6573SOL    HW230054   0.461   7.170   1.278
 6574SOL     OW30055   6.336   8.924   2.381
 6574SOL    HW130056   6.312   8.982   2.303
 6574SOL    HW230057   6.256   8.915   2.441
 6575SOL     OW30058   0.015   0.615   0.453
 6575SOL    HW130059   0.087   0.546   0.456
 6575SOL    HW230060   9.987   0.638   0.547
 6576SOL     OW30061   9.442   7.106   1.760
 6576SOL    HW130062   9.463   7.015   1.795
 6576SOL    HW230063   9.365   7.145   1.811
 6577SOL     OW30064   9.065   6.465   1.608
 6577SOL    HW130065   9.083   6.454   1.511
 6577SOL    HW230066   9.109   6.391   1.659
 6578SOL     OW30067   0.510   7.067   0.533
 6578SOL    HW130068   0.535   7.127   0.457
 6578SOL    HW230069   0.503   6.973   0.499
 6579SOL     OW30070   8.978   1.525   2.329
 6579SOL    HW130071   8.923   1.580   2.265
 6579SOL    HW230072   8.943   1.537   2.422
 6580SOL     OW30073   8.417   9.987   2.761
 6580SOL    HW130074   8.449   9.909   2.708
 6580SOL    HW230075   8.487   0.059   2.760
 6581SOL     OW30076   7.880   0.262   3.048
 6581SOL    HW130077   7.879   0.321   2.968
 6581SOL    HW230078   7.808   0.290   3.112
 6582SOL     OW30079   4.581   0.377   2.934
 6582SOL    HW130080   4.521   0.318   2.880
 6582SOL    HW230081   4.641   0.321   2.990
 6583SOL     OW30082   2.601   8.756   2.405
 6583SOL    HW130083   2.661   8.730   2.480
 6583SOL    HW230084   2.598   8.856   2.397
 6584SOL     OW30085   4.880   7.553   2.420
 6584SOL    HW130086   4.859   7.459   2.447
 6584SOL    HW230087   4.960   7.586   2.471
 6585SOL     OW30088   9.334   4.093   1.006
 6585SOL    HW130089   9.350   4.168   1.069
 6585SOL    HW230090   9.342   4.127   0.912
 6586SOL     OW30091   4.398   2.445   2.961
 6586SOL    HW130092   4.468   2.444   2.889
 6586SOL    HW230093   4.441   2.471   3.047
 6587SOL     OW30094   8.357   7.306   0.409
 6587SOL    HW130095   8.306   7.324   0.492
 6587SOL    HW230096   8.370   7.391   0.358
 6588SOL     OW30097   0.804   3.257   2.318
 6588SOL    HW130098   0.768   3.167   2.295
 6588SOL    HW230099   0.731   3.325   2.308
 6589SOL     OW30100   9.270   1.463   0.368
 6589SOL    HW130101   9.326   1.410   0.305
 6589SOL    HW230102   9.310   1.554   0.380
 6590SOL     OW30103   1.326   2.213   1.940
 6590SOL    HW130104   1.379   2.287   1.898
 6590SOL    HW230105   1.264   2.174   1.872
 6591SOL     OW30106   9.019   6.241   1.137
 6591SOL    HW130107   9.043   6.144   1.136
 6591SOL    HW230108   8.935   6.254   1.190
 6592SOL     OW30109   1.309   0.757   1.914
 6592SOL    HW130110   1.368   0.722   1.988
 6592SOL    HW230111   1.295   0.855   1.926
 6593SOL     OW30112   3.334   1.510   0.676
 6593SOL    HW130113   3.356   1.428   0.729
 6593SOL    HW230114   3.315   1.585   0.739
 6594SOL     OW30115   9.628   9.397   1.072
 6594SOL    HW130116   9.590   9.410   1.164
 6594SOL    HW230117   9.620   9.301   1.046
 6595SOL     OW30118   4.268   8.770   0.242
 6595SOL    HW130119   4.341   8.766   0.174
 6595SOL    HW230120   4.246   8.865   0.262
 6596SOL     OW30121   0.289   4.502   1.783
 6596SOL    HW130122   0.325   4.409   1.797
 6596SOL    HW230123   0.248   4.508   1.692
 6597SOL     OW30124   9.759   6.737   2.530
 6597SOL    HW130125   9.684   6.760   2.592
 6597SOL    HW230126   9.758   6.799   2.452
 6598SOL     OW30127   1.052   4.058   1.424
 6598SOL    HW130128   1.032   4.014   1.512
 6598SOL    HW230129   1.093   3.992   1.362
 6599SOL     OW30130   8.202   1.595   2.508
 6599SOL    HW130131   8.299   1.597   2.535
 6599SOL    HW230132   8.148   1.648   2.573
 6600SOL     OW30133   1.618   1.465   1.729
 6600SOL    HW130134   1.646   1.438   1.637
 6600SOL    HW230135   1.603   1.564   1.731
 6601SOL     OW30136   2.547   3.732   1.376
 6601SOL    HW130137   2.575   3.795   1.448
 6601SOL    HW230138   2.457   3.696   1.396
 6602SOL     OW30139   8.959   8.616   1.438
 6602SOL    HW130140   8.970   8.522   1.469
 6602SOL    HW230141   9.043   8.667   1.454
 6603SOL     OW30142   0.265   0.592   1.948
 6603SOL    HW130143   0.217   0.557   2.028
 6603SOL    HW230144   0.356   0.625   1.975
 6604SOL     OW30145   3.845   8.124   0.947
 6604SOL    HW130146   3.933   8.151   0.986
 6604SOL    HW230147   3.858   8.095   0.852
 6605SOL     OW30148   6.277   8.644   2.974
 6605SOL    HW130149   6.367   8.686   2.984
 6605SOL    HW230150   6.240   8.666   2.884
 6606SOL     OW30151   0.416   2.498   2.041
 6606SOL    HW130152   0.320   2.524   2.041
 6606SOL    HW230153   0.431   2.422   2.104
 6607SOL     OW30154   6.636   9.169   2.622
 6607SOL    HW130155   6.694   9.113   2.681
 6607SOL    HW230156   6.631   9.128   2.531
 6608SOL     OW30157   0.169   2.136   1.889
 6608SOL    HW130158   0.120   2.049   1.885
 6608SOL    HW230159   0.263   2.119   1.920
 6609SOL     OW30160   1.814   0.530   1.506
 6609SOL    HW130161   1.811   0.526   1.406
 6609SOL    HW230162   1.785   0.620   1.538
 6610SOL     OW30163   1.001   0.934   0.209
 6610SOL    HW130164   0.957   1.015   0.170
 6610SOL    HW230165   0.955   0.852   0.177
 6611SOL     OW30166   9.848   6.946   1.096
 6611SOL    HW130167   9.888   6.872   1.043
 6611SOL    HW230168   9.898   6.956   1.182
 6612SOL     OW30169   9.955   0.327   1.504
 6612SOL    HW130170   9.964   0.318   1.404
 6612SOL    HW230171   9.930   0.421   1.526
 6613SOL     OW30172   3.611   1.310   1.778
 6613SOL    HW130173   3.586   1.322   1.874
 6613SOL    HW230174   3.560   1.233   1.740
 6614SOL     OW30175   9.567   8.670   2.743
 6614SOL    HW130176   9.595   8.696   2.651
 6614SOL    HW230177   9.589   8.744   2.807
 6615SOL     OW30178   8.218   5.553   1.466
 6615SOL    HW130179   8.180   5.631   1.417
 6615SOL    HW230180   8.286   5.508   1.408
 6616SOL     OW30181   4.553   3.083   0.288
 6616SOL    HW130182   4.630   3.040   0.334
 6616SOL    HW230183   4.468   3.047   0.324
 6617SOL     OW30184   8.485   9.472   1.098
 6617SOL    HW130185   8.407   9.533   1.110
 6617SOL    HW230186   8.514   9.436   1.186
 6618SOL     OW30187   8.450   7.886   2.303
 6618SOL    HW130188   8.430   7.914   2.209
 6618SOL    HW230189   8.406   7.798   2.321
 6619SOL     OW30190   4.270   7.418   1.792
 6619SOL    HW130191   4.285   7.466   1.879
 6619SOL    HW230192   4.345   7.441   1.729
 6620SOL     OW30193   2.008   1.722   1.562
 6620SOL    HW130194   1.925   1.740   1.510
 6620SOL    HW230195   2.083   1.698   1.500
 6621SOL     OW30196   8.408   8.459   2.669
 6621SOL    HW130197   8.346   8.382   2.660
 6621SOL    HW230198   8.379   8.533   2.607
 6622SOL     OW30199   1.431   1.180   2.112
 6622SOL    HW130200   1.524   1.143   2.118
 6622SOL    HW230201   1.435   1.275   2.080
 6623SOL     OW30202   1.952   8.499   0.900
 6623SOL    HW130203   1.919   8.404   0.908
 6623SOL    HW230204   1.902   8.557   0.964
 6624SOL     OW30205   4.895   8.609   2.963
 6624SOL    HW130206   4.811   8.560   2.984
 6624SOL    HW230207   4.881   8.707   2.978
 6625SOL     OW30208   0.032   6.940   2.436
 6625SOL    HW130209   9.948   6.925   2.385
 6625SOL    HW230210   0.089   6.858   2.432
 6626SOL     OW30211   8.086   8.930   2.181
 6626SOL    HW130212   8.129   9.003   2.129
 6626SOL    HW230213   8.054   8.859   2.117
 6627SOL     OW30214   7.925   9.971   2.305
 6627SOL    HW130215   7.863   9.926   2.240
 6627SOL    HW230216   7.985   0.034   2.256
 6628SOL     OW30217   4.355   3.486   2.471
 6628SOL    HW130218   4.429   3.434   2.429
 6628SOL    HW230219   4.332   3.444   2.560
 6629SOL     OW30220   8.553   1.638   0.535
 6629SOL    HW130221   8.529   1.546   0.502
 6629SOL    HW230222   8.471   1.695   0.538
 6630SOL     OW30223   3.041   4.963   2.011
 6630SOL    HW130224   3.055   5.042   1.952
 6630SOL    HW230225   2.979   4.898   1.966
 6631SOL     OW30226   7.190   9.762   2.211
 6631SOL    HW130227   7.132   9.755   2.293
 6631SOL    HW230228   7.278   9.803   2.236
 6632SOL     OW30229   3.449   9.155   1.115
 6632SOL    HW130230   3.453   9.080   1.182
 6632SOL    HW230231   3.477   9.240   1.159
 6633SOL     OW30232   1.300   7.566   1.276
 6633SOL    HW130233   1.289   7.665   1.278
 6633SOL    HW230234   1.353   7.539   1.195
 6634SOL     OW30235   4.595   8.219   3.073
 6634SOL    HW130236   4.518   8.169   3.113
 6634SOL    HW230237   4.652   8.155   3.021
 6635SOL     OW30238   3.144   5.399   1.732
 6635SOL    HW130239   3.223   5.453   1.702
 6635SOL    HW230240   3.097   5.446   1.806
 6636SOL     OW30241   1.703   7.995   1.895
 6636SOL    HW130242   1.681   8.088   1.868
 6636SOL    HW230243   1.631   7.933   1.864
 6637SOL     OW30244   3.869   1.018   1.299
 6637SOL    HW130245   3.958   1.012   1.255
 6637SOL    HW230246   3.861   1.107   1.344
 6638SOL     OW30247   1.508   5.557   2.948
 6638SOL    HW130248   1.541   5.513   2.864
 6638SOL    HW230249   1.578   5.618   2.984
 6639SOL     OW30250   3.632   2.228   0.237
 6639SOL    HW130251   3.542   2.201   0.204
 6639SOL    HW230252   3.662   2.311   0.190
 6640SOL     OW30253   9.916   5.562   0.522
 6640SOL    HW130254   9.962   5.474   0.515
 6640SOL    HW230255   9.836   5.554   0.581
 6641SOL     OW30256   4.557   3.879   1.573
 6641SOL    HW130257   4.535   3.951   1.639
 6641SOL    HW230258   4.607   3.806   1.619
 6642SOL     OW30259   3.608   4.648   0.769
 6642SOL    HW130260   3.552   4.579   0.814
 6642SOL    HW230261   3.583   4.739   0.802
 6643SOL     OW30262   1.242   2.407   1.362
 6643SOL    HW130263   1.261   2.403   1.460
 6643SOL    HW230264   1.247   2.502   1.332
 6644SOL     OW30265   0.313   5.319   2.990
 6644SOL    HW130266   0.216   5.307   2.971
 6644SOL    HW230267   0.340   5.257   3.064
 6645SOL     OW30268   3.431   8.119   0.307
 6645SOL    HW130269   3.391   8.151   0.221
 6645SOL    HW230270   3.513   8.172   0.327
 6646SOL     OW30271   2.938   7.457   1.438
 6646SOL    HW130272   2.943   7.514   1.519
 6646SOL    HW230273   2.892   7.371   1.460
 6647SOL     OW30274   4.714   3.103   0.830
 6647SOL    HW130275   4.676   3.125   0.740
 6647SOL    HW230276   4.736   3.005   0.833
 6648SOL     OW30277   7.770   3.635   1.027
 6648SOL    HW130278   7.790   3.551   0.977
 6648SOL    HW230279   7.716   3.697   0.969
 6649SOL     OW30280   5.384   0.957   2.049
 6649SOL    HW130281   5.362   0.957   2.147
 6649SOL    HW230282   5.447   1.032   2.030
 6650SOL     OW30283   9.807   3.808   2.258
 6650SOL    HW130284   9.717   3.832   2.222
 6650SOL    HW230285   9.867   3.887   2.254
 6651SOL     OW30286   8.367   4.567   2.689
 6651SOL    HW130287   8.455   4.562   2.735
 6651SOL    HW230288   8.348   4.480   2.643
 6652SOL     OW30289   7.744   1.822   0.883
 6652SOL    HW130290   7.691   1.763   0.945
 6652SOL    HW230291   7.783   1.898   0.936
 6653SOL     OW30292   2.202   8.550   2.263
 6653SOL    HW130293   2.245   8.593   2.342
 6653SOL    HW230294   2.241   8.459   2.249
 6654SOL     OW30295   8.674   4.738   1.508
 6654SOL    HW130296   8.656   4.731   1.606
 6654SOL    HW230297   8.702   4.831   1.485
 6655SOL     OW30298   9.240   5.771   2.677
 6655SOL    HW130299   9.280   5.683   2.701
 6655SOL    HW230300   9.288   5.844   2.725
 6656SOL     OW30301   2.112   0.507   2.643
 6656SOL    HW130302   2.205   0.540   2.661
 6656SOL    HW230303   2.072   0.472   2.727
 6657SOL     OW30304   4.680   0.794   1.798
 6657SOL    HW130305   4.701   0.871   1.859
 6657SOL    HW230306   4.647   0.717   1.852
 6658SOL     OW30307   5.376   7.766   2.750
 6658SOL    HW130308   5.369   7.671   2.781
 6658SOL    HW230309   5.415   7.821   2.824
 6659SOL     OW30310   3.836   2.644   0.268
 6659SOL    HW130311   3.929   2.679   0.257
 6659SOL    HW230312   3.833   2.581   0.346
 6660SOL     OW30313   8.019   1.446   0.616
 6660SOL    HW130314   8.059   1.467   0.526
 6660SOL    HW230315   7.996   1.531   0.663
 6661SOL     OW30316   9.893   6.406   3.018
 6661SOL    HW130317   9.906   6.420   2.919
 6661SOL    HW230318   9.840   6.481   3.056
 6662SOL     OW30319   0.763   2.772   0.761
 6662SOL    HW130320   0.709   2.754   0.678
 6662SOL    HW230321   0.813   2.858   0.750
 6663SOL     OW30322   8.732   3.618   0.194
 6663SOL    HW130323   8.659   3.685   0.177
 6663SOL    HW230324   8.693   3.526   0.194
 6664SOL     OW30325   4.390   7.606   2.596
 6664SOL    HW130326   4.418   7.681   2.536
 6664SOL    HW230327   4.352   7.643   2.680
 6665SOL     OW30328   0.508   5.330   2.085
 6665SOL    HW130329   0.432   5.310   2.147
 6665SOL    HW230330   0.486   5.295   1.994
 6666SOL     OW30331   8.618   8.054   0.210
 6666SOL    HW130332   8.638   7.970   0.261
 6666SOL    HW230333   8.527   8.047   0.170
 6667SOL     OW30334   1.053   1.337   0.385
 6667SOL    HW130335   1.011   1.299   0.303
 6667SOL    HW230336   1.070   1.263   0.450
 6668SOL     OW30337   0.530   3.767   2.833
 6668SOL    HW130338   0.514   3.691   2.896
 6668SOL    HW230339   0.488   3.850   2.869
 6669SOL     OW30340   1.638   6.319   1.084
 6669SOL    HW130341   1.586   6.255   1.140
 6669SOL    HW230342   1.703   6.269   1.027
 6670SOL     OW30343   0.594   7.347   2.289
 6670SOL    HW130344   0.569   7.268   2.346
 6670SOL    HW230345   0.677   7.389   2.325
 6671SOL     OW30346   9.012   1.741   1.598
 6671SOL    HW130347   9.088   1.678   1.580
 6671SOL    HW230348   8.926   1.691   1.596
 6672SOL     OW30349   9.328   6.292   3.010
 6672SOL    HW130350   9.422   6.264   2.991
 6672SOL    HW230351   9.269   6.211   3.015
 6673SOL     OW30352   4.720   3.284   1.946
 6673SOL    HW130353   4.766   3.211   1.996
 6673SOL    HW230354   4.699   3.253   1.854
 6674SOL     OW30355   4.050   1.354   2.377
 6674SOL    HW130356   4.102   1.436   2.350
 6674SOL    HW230357   4.014   1.366   2.469
 6675SOL     OW30358   2.079   0.451   1.516
 6675SOL    HW130359   2.111   0.500   1.597
 6675SOL    HW230360   1.984   0.475   1.497
 6676SOL     OW30361   8.097   3.029   1.698
 6676SOL    HW130362   8.140   2.946   1.662
 6676SOL    HW230363   8.024   3.058   1.636
 6677SOL     OW30364   4.319   5.042   2.466
 6677SOL    HW130365   4.371   5.118   2.507
 6677SOL    HW230366   4.347   5.030   2.371
 6678SOL     OW30367   0.280   5.631   1.391
 6678SOL    HW130368   0.184   5.641   1.414
 6678SOL    HW230369   0.303   5.691   1.315
 6679SOL     OW30370   2.937   0.127   1.678
 6679SOL    HW130371   2.962   0.207   1.733
 6679SOL    HW230372   2.853   0.087   1.713
 6680SOL     OW30373   8.895   8.207   0.337
 6680SOL    HW130374   8.906   8.219   0.239
 6680SOL    HW230375   8.801   8.228   0.363
 6681SOL     OW30376   9.276   2.796   2.201
 6681SOL    HW130377   9.354   2.776   2.261
 6681SOL    HW230378   9.240   2.711   2.162
 6682SOL     OW30379   0.184   4.192   2.578
 6682SOL    HW130380   0.174   4.100   2.538
 6682SOL    HW230381   0.249   4.245   2.524
 6683SOL     OW30382   2.728   7.595   0.635
 6683SOL    HW130383   2.651   7.545   0.597
 6683SOL    HW230384   2.805   7.533   0.648
 6684SOL     OW30385   2.625   8.408   0.372
 6684SOL    HW130386   2.617   8.506   0.352
 6684SOL    HW230387   2.691   8.367   0.309
 6685SOL     OW30388   8.659   9.363   0.082
 6685SOL    HW130389   8.740   9.304   0.090
 6685SOL    HW230390   8.679   9.437   0.018
 6686SOL     OW30391   1.142   5.343   0.541
 6686SOL    HW130392   1.149   5.381   0.449
 6686SOL    HW230393   1.230   5.307   0.570
 6687SOL     OW30394   0.732   7.923   3.015
 6687SOL    HW130395   0.806   7.982   2.983
 6687SOL    HW230396   0.769   7.854   3.077
 6688SOL     OW30397   8.242   2.401   0.271
 6688SOL    HW130398   8.216   2.486   0.317
 6688SOL    HW230399   8.167   2.335   0.279
 6689SOL     OW30400   3.336   8.100   0.837
 6689SOL    HW130401   3.247   8.131   0.871
 6689SOL    HW230402   3.349   8.132   0.744
 6690SOL     OW30403   0.109   3.761   1.121
 6690SOL    HW130404   0.011   3.773   1.105
 6690SOL    HW230405   0.156   3.847   1.099
 6691SOL     OW30406   4.171   9.970   2.662
 6691SOL    HW130407   4.178   0.065   2.631
 6691SOL    HW230408   4.244   9.916   2.621
 6692SOL     OW30409   1.120   9.308   2.541
 6692SOL    HW130410   1.059   9.263   2.606
 6692SOL    HW230411   1.066   9.358   2.474
 6693SOL     OW30412   1.721   0.788   1.299
 6693SOL    HW130413   1.756   0.701   1.265
 6693SOL    HW230414   1.728   0.789   1.399
 6694SOL     OW30415   9.364   5.768   0.630
 6694SOL    HW130416   9.280   5.816   0.653
 6694SOL    HW230417   9.405   5.729   0.713
 6695SOL     OW30418   2.902   7.816   1.521
 6695SOL    HW130419   2.888   7.739   1.583
 6695SOL    HW230420   2.883   7.902   1.569
 6696SOL     OW30421   4.053   3.366   0.934
 6696SOL    HW130422   4.040   3.350   1.032
 6696SOL    HW230423   4.141   3.411   0.919
 6697SOL     OW30424   1.408   0.641   2.344
 6697SOL    HW130425   1.483   0.616   2.405
 6697SOL    HW230426   1.444   0.660   2.253
 6698SOL     OW30427   8.616   7.644   0.112
 6698SOL    HW130428   8.617   7.544   0.119
 6698SOL    HW230429   8.555   7.671   0.037
 6699SOL     OW30430   4.339   1.402   1.592
 6699SOL    HW130431   4.377   1.316   1.626
 6699SOL    HW230432   4.269   1.383   1.523
 6700SOL     OW30433   5.055   7.888   2.390
 6700SOL    HW130434   4.964   7.909   2.427
 6700SOL    HW230435   5.104   7.829   2.455
 6701SOL     OW30436   9.278   1.332   1.622
 6701SOL    HW130437   9.205   1.264   1.617
 6701SOL    HW230438   9.317   1.334   1.714
 6702SOL     OW30439   3.503   9.118   1.513
 6702SOL    HW130440   3.428   9.184   1.516
 6702SOL    HW230441   3.495   9.063   1.430
 6703SOL     OW30442   8.844   9.859   0.586
 6703SOL    HW130443   8.888   9.816   0.665
 6703SOL    HW230444   8.806   9.787   0.527
 6704SOL     OW30445   0.265   6.795   1.874
 6704SOL    HW130446   0.213   6.713   1.900
 6704SOL    HW230447   0.219   6.840   1.797
 6705SOL     OW30448   0.879   4.041   3.037
 6705SOL    HW130449   0.900   4.042   3.134
 6705SOL    HW230450   0.926   3.964   2.993
 6706SOL     OW30451   8.992   1.754   0.551
 6706SOL    HW130452   8.898   1.780   0.527
 6706SOL    HW230453   9.004   1.656   0.534
 6707SOL     OW30454   0.796   9.672   1.164
 6707SOL    HW130455   0.818   9.684   1.261
 6707SOL    HW230456   0.708   9.715   1.145
 6708SOL     OW30457   2.195   9.956   1.349
 6708SOL    HW130458   2.118   9.892   1.340
 6708SOL    HW230459   2.247   9.934   1.432
 6709SOL     OW30460   2.040   0.442   2.896
 6709SOL    HW130461   2.078   0.375   2.960
 6709SOL    HW230462   1.948   0.468   2.926
 6710SOL     OW30463   0.799   1.084   3.045
 6710SOL    HW130464   0.875   1.122   3.098
 6710SOL    HW230465   0.751   1.158   2.997
 6711SOL     OW30466   5.227   8.869   2.047
 6711SOL    HW130467   5.204   8.848   1.952
 6711SOL    HW230468   5.307   8.816   2.075
 6712SOL     OW30469   8.526   2.404   2.002
 6712SOL    HW130470   8.556   2.429   1.910
 6712SOL    HW230471   8.597   2.429   2.068
 6713SOL     OW30472   8.299   4.113   1.325
 6713SOL    HW130473   8.314   4.210   1.345
 6713SOL    HW230474   8.207   4.100   1.290
 6714SOL     OW30475   1.648   4.441   1.810
 6714SOL    HW130476   1.739   4.475   1.834
 6714SOL    HW230477   1.629   4.356   1.861
 6715SOL     OW30478   3.257   0.450   2.721
 6715SOL    HW130479   3.315   0.526   2.749
 6715SOL    HW230480   3.240   0.390   2.799
 6716SOL     OW30481   0.409   9.899   1.815
 6716SOL    HW130482   0.459   9.897   1.729
 6716SOL    HW230483   0.446   9.831   1.877
 6717SOL     OW30484   7.123   9.084   1.198
 6717SOL    HW130485   7.099   9.136   1.116
 6717SOL    HW230486   7.091   9.132   1.279
 6718SOL     OW30487   3.097   5.582   2.866
 6718SOL    HW130488   3.062   5.536   2.785
 6718SOL    HW230489   3.180   5.535   2.898
 6719SOL     OW30490   3.181   6.410   0.776
 6719SOL    HW130491   3.126   6.424   0.693
 6719SOL    HW230492   3.268   6.367   0.752
 6720SOL     OW30493   1.222   0.426   0.929
 6720SOL    HW130494   1.227   0.428   0.829
 6720SOL    HW230495   1.258   0.339   0.962
 6721SOL     OW30496   7.419   8.757   0.053
 6721SOL    HW130497   7.507   8.803   0.045
 6721SOL    HW230498   7.408   8.694   4.016
 6722SOL     OW30499   7.989   4.413   0.371
 6722SOL    HW130500   7.965   4.507   0.349
 6722SOL    HW230501   7.921   4.374   0.433
 6723SOL     OW30502   0.038   1.277   0.084
 6723SOL    HW130503   0.081   1.187   0.092
 6723SOL    HW230504   9.952   1.278   0.134
 6724SOL     OW30505   6.933   0.305   3.079
 6724SOL    HW130506   7.031   0.286   3.083
 6724SOL    HW230507   6.918   0.394   3.035
 6725SOL     OW30508   0.854   9.320   0.259
 6725SOL    HW130509   0.912   9.255   0.211
 6725SOL    HW230510   0.909   9.371   0.325
 6726SOL     OW30511   4.076   6.931   2.394
 6726SOL    HW130512   4.169   6.960   2.373
 6726SOL    HW230513   4.074   6.834   2.416
 6727SOL     OW30514   9.071   0.638   2.149
 6727SOL    HW130515   9.018   0.644   2.064
 6727SOL    HW230516   9.045   0.713   2.210
 6728SOL     OW30517   2.258   5.742   2.975
 6728SOL    HW130518   2.206   5.683   3.036
 6728SOL    HW230519   2.346   5.699   2.955
 6729SOL     OW30520   1.166   8.005   1.849
 6729SOL    HW130521   1.076   7.981   1.810
 6729SOL    HW230522   1.168   8.102   1.870
 6730SOL     OW30523   1.720   3.222   1.592
 6730SOL    HW130524   1.635   3.197   1.546
 6730SOL    HW230525   1.699   3.259   1.683
 6731SOL     OW30526   1.478   8.026   0.229
 6731SOL    HW130527   1.419   8.006   0.150
 6731SOL    HW230528   1.563   7.974   0.222
 6732SOL     OW30529   3.790   2.938   0.834
 6732SOL    HW130530   3.699   2.966   0.864
 6732SOL    HW230531   3.852   3.016   0.835
 6733SOL     OW30532   0.528   2.169   0.615
 6733SOL    HW130533   0.442   2.218   0.628
 6733SOL    HW230534   0.510   2.081   0.570
 6734SOL     OW30535   0.019   5.925   2.237
 6734SOL    HW130536   9.991   6.005   2.184
 6734SOL    HW230537   0.052   5.854   2.175
 6735SOL     OW30538   3.751   2.919   0.204
 6735SOL    HW130539   3.813   2.995   0.222
 6735SOL    HW230540   3.803   2.836   0.187
 6736SOL     OW30541   0.054   5.027   1.127
 6736SOL    HW130542   0.115   4.952   1.103
 6736SOL    HW230543   9.967   4.990   1.160
 6737SOL     OW30544   8.956   0.672   1.900
 6737SOL    HW130545   9.023   0.745   1.882
 6737SOL    HW230546   8.944   0.616   1.818
 6738SOL     OW30547   3.126   9.290   2.246
 6738SOL    HW130548   3.053   9.311   2.181
 6738SOL    HW230549   3.094   9.308   2.339
 6739SOL     OW30550   1.081   6.949   1.208
 6739SOL    HW130551   1.112   6.879   1.271
 6739SOL    HW230552   1.018   6.910   1.141
 6740SOL     OW30553   0.656   4.899   0.724
 6740SOL    HW130554   0.561   4.869   0.715
 6740SOL    HW230555   0.660   4.999   0.718
 6741SOL     OW30556   0.575   3.694   2.219
 6741SOL    HW130557   0.569   3.694   2.119
 6741SOL    HW230558   0.514   3.764   2.256
 6742SOL     OW30559   0.778   1.582   0.985
 6742SOL    HW130560   0.867   1.545   1.009
 6742SOL    HW230561   0.735   1.523   0.916
 6743SOL     OW30562   7.487   9.203   0.911
 6743SOL    HW130563   7.497   9.166   1.003
 6743SOL    HW230564   7.568   9.257   0.887
 6744SOL     OW30565   2.366   1.122   2.077
 6744SOL    HW130566   2.289   1.124   2.014
 6744SOL    HW230567   2.415   1.036   2.066
 6745SOL     OW30568   4.681   8.712   2.425
 6745SOL    HW130569   4.780   8.705   2.433
 6745SOL    HW230570   4.639   8.707   2.515
 6746SOL     OW30571   9.906   9.531   2.078
 6746SOL    HW130572   9.885   9.492   1.989
 6746SOL    HW230573   9.863   9.622   2.085
 6747SOL     OW30574   3.014   9.026   1.865
 6747SOL    HW130575   3.099   8.973   1.867
 6747SOL    HW230576   2.973   9.027   1.956
 6748SOL     OW30577   1.368   3.351   0.367
 6748SOL    HW130578   1.295   3.331   0.432
 6748SOL    HW230579   1.340   3.427   0.308
 6749SOL     OW30580   1.848   1.097   0.453
 6749SOL    HW130581   1.840   1.010   0.501
 6749SOL    HW230582   1.815   1.171   0.511
 6750SOL     OW30583   3.919   2.354   2.874
 6750SOL    HW130584   4.017   2.363   2.892
 6750SOL    HW230585   3.905   2.341   2.775
 6751SOL     OW30586   0.379   9.839   0.714
 6751SOL    HW130587   0.409   9.868   0.623
 6751SOL    HW230588   0.352   9.919   0.767
 6752SOL     OW30589   1.307   9.105   2.876
 6752SOL    HW130590   1.313   9.203   2.858
 6752SOL    HW230591   1.224   9.069   2.834
 6753SOL     OW30592   4.438   9.694   1.607
 6753SOL    HW130593   4.389   9.696   1.520
 6753SOL    HW230594   4.373   9.693   1.683
 6754SOL     OW30595   3.339   8.832   1.491
 6754SOL    HW130596   3.239   8.833   1.482
 6754SOL    HW230597   3.365   8.761   1.557
 6755SOL     OW30598   5.938   7.973   2.836
 6755SOL    HW130599   5.991   7.951   2.918
 6755SOL    HW230600   5.884   8.056   2.853
 6756SOL     OW30601   3.866   8.523   1.629
 6756SOL    HW130602   3.949   8.507   1.576
 6756SOL    HW230603   3.803   8.446   1.616
 6757SOL     OW30604   1.153   1.553   1.880
 6757SOL    HW130605   1.064   1.598   1.872
 6757SOL    HW230606   1.161   1.510   1.970
 6758SOL     OW30607   4.477   1.314   0.736
 6758SOL    HW130608   4.470   1.225   0.691
 6758SOL    HW230609   4.454   1.305   0.832
 6759SOL     OW30610   3.374   1.565   1.801
 6759SOL    HW130611   3.326   1.653   1.801
 6759SOL    HW230612   3.453   1.571   1.739
 6760SOL     OW30613   0.949   8.779   1.484
 6760SOL    HW130614   0.916   8.780   1.579
 6760SOL    HW230615   1.020   8.848   1.473
 6761SOL     OW30616   3.374   8.196   0.580
 6761SOL    HW130617   3.398   8.166   0.487
 6761SOL    HW230618   3.431   8.274   0.604
 6762SOL     OW30619   1.323   0.520   0.286
 6762SOL    HW130620   1.239   0.572   0.307
 6762SOL    HW230621   1.324   0.436   0.339
 6763SOL     OW30622   2.863   2.471   0.792
 6763SOL    HW130623   2.861   2.371   0.796
 6763SOL    HW230624   2.832   2.502   0.702
 6764SOL     OW30625   1.809   2.418   0.362
 6764SOL    HW130626   1.896   2.446   0.322
 6764SOL    HW230627   1.770   2.343   0.308
 6765SOL     OW30628   3.862   9.436   2.305
 6765SOL    HW130629   3.853   9.497   2.384
 6765SOL    HW230630   3.869   9.341   2.336
 6766SOL     OW30631   8.720   7.277   2.893
 6766SOL    HW130632   8.754   7.187   2.867
 6766SOL    HW230633   8.786   7.320   2.955
 6767SOL     OW30634   0.253   2.583   1.275
 6767SOL    HW130635   0.204   2.518   1.334
 6767SOL    HW230636   0.348   2.554   1.265
 6768SOL     OW30637   4.074   2.780   0.256
 6768SOL    HW130638   4.114   2.838   0.185
 6768SOL    HW230639   4.067   2.832   0.341
 6769SOL     OW30640   9.933   0.022   1.099
 6769SOL    HW130641   9.953   9.992   1.006
 6769SOL    HW230642   9.837   0.046   1.106
 6770SOL     OW30643   9.730   3.212   1.157
 6770SOL    HW130644   9.668   3.288   1.141
 6770SOL    HW230645   9.728   3.186   1.253
 6771SOL     OW30646   9.030   6.853   0.628
 6771SOL    HW130647   8.986   6.922   0.570
 6771SOL    HW230648   8.967   6.824   0.700
 6772SOL     OW30649   8.044   3.183   0.860
 6772SOL    HW130650   8.013   3.088   0.862
 6772SOL    HW230651   8.134   3.189   0.904
 6773SOL     OW30652   0.708   9.486   0.982
 6773SOL    HW130653   0.757   9.541   1.051
 6773SOL    HW230654   0.671   9.546   0.911
 6774SOL     OW30655   9.842   8.518   1.005
 6774SOL    HW130656   9.905   8.460   0.954
 6774SOL    HW230657   9.818   8.473   1.091
 6775SOL     OW30658   0.071   0.291   2.964
 6775SOL    HW130659   9.987   0.340   2.944
 6775SOL    HW230660   0.146   0.329   2.910
 6776SOL     OW30661   6.811   0.525   2.942
 6776SOL    HW130662   6.810   0.484   2.851
 6776SOL    HW230663   6.727   0.499   2.991
 6777SOL     OW30664   9.705   6.026   2.046
 6777SOL    HW130665   9.801   6.056   2.050
 6777SOL    HW230666   9.659   6.049   2.131
 6778SOL     OW30667   1.847   7.056   1.173
 6778SOL    HW130668   1.756   7.097   1.166
 6778SOL    HW230669   1.839   6.959   1.196
 6779SOL     OW30670   8.665   9.649   1.967
 6779SOL    HW130671   8.619   9.570   2.009
 6779SOL    HW230672   8.612   9.680   1.888
 6780SOL     OW30673   9.106   8.802   1.775
 6780SOL    HW130674   9.161   8.872   1.819
 6780SOL    HW230675   9.009   8.827   1.779
 6781SOL     OW30676   9.896   1.649   3.085
 6781SOL    HW130677   9.944   1.674   3.170
 6781SOL    HW230678   9.853   1.730   3.046
 6782SOL     OW30679   0.711   1.851   2.763
 6782SOL    HW130680   0.776   1.895   2.825
 6782SOL    HW230681   0.627   1.829   2.812
 6783SOL     OW30682   9.681   6.310   0.099
 6783SOL    HW130683   9.781   6.321   0.098
 6783SOL    HW230684   9.657   6.237   0.163
 6784SOL     OW30685   3.463   2.394   2.945
 6784SOL    HW130686   3.448   2.305   2.902
 6784SOL    HW230687   3.558   2.423   2.931
 6785SOL     OW30688   9.589   9.672   1.066
 6785SOL    HW130689   9.615   9.576   1.058
 6785SOL    HW230690   9.552   9.689   1.157
 6786SOL     OW30691   3.718   0.226   1.957
 6786SOL    HW130692   3.705   0.167   2.037
 6786SOL    HW230693   3.645   0.294   1.953
 6787SOL     OW30694   9.949   6.958   0.602
 6787SOL    HW130695   9.863   6.908   0.593
 6787SOL    HW230696   9.947   7.040   0.546
 6788SOL     OW30697   0.638   8.091   1.516
 6788SOL    HW130698   0.717   8.146   1.541
 6788SOL    HW230699   0.666   8.021   1.450
 6789SOL     OW30700   2.512   0.885   1.778
 6789SOL    HW130701   2.434   0.849   1.727
 6789SOL    HW230702   2.492   0.884   1.876
 6790SOL     OW30703   0.499   7.615   0.708
 6790SOL    HW130704   0.529   7.543   0.771
 6790SOL    HW230705   0.563   7.692   0.713
 6791SOL     OW30706   3.002   4.046   1.445
 6791SOL    HW130707   2.926   4.007   1.393
 6791SOL    HW230708   3.049   4.115   1.391
 6792SOL     OW30709   1.559   3.578   2.646
 6792SOL    HW130710   1.605   3.494   2.619
 6792SOL    HW230711   1.567   3.592   2.744
 6793SOL     OW30712   2.700   2.296   1.844
 6793SOL    HW130713   2.706   2.383   1.892
 6793SOL    HW230714   2.617   2.247   1.874
 6794SOL     OW30715   3.119   4.814   0.232
 6794SOL    HW130716   3.212   4.777   0.231
 6794SOL    HW230717   3.121   4.909   0.263
 6795SOL     OW30718   3.701   7.236   0.465
 6795SOL    HW130719   3.645   7.280   0.395
 6795SOL    HW230720   3.683   7.137   0.466
 6796SOL     OW30721   2.520   0.213   1.922
 6796SOL    HW130722   2.537   0.281   1.993
 6796SOL    HW230723   2.498   0.259   1.836
 6797SOL     OW30724   3.316   5.094   2.781
 6797SOL    HW130725   3.220   5.066   2.781
 6797SOL    HW230726   3.374   5.014   2.770
 6798SOL     OW30727   0.334   4.190   1.473
 6798SOL    HW130728   0.339   4.274   1.418
 6798SOL    HW230729   0.302   4.115   1.416
 6799SOL     OW30730   9.571   0.475   2.704
 6799SOL    HW130731   9.596   0.534   2.781
 6799SOL    HW230732   9.626   0.392   2.707
 6800SOL     OW30733   3.692   9.588   0.219
 6800SOL    HW130734   3.767   9.632   0.170
 6800SOL    HW230735   3.727   9.545   0.303
 6801SOL     OW30736   1.533   9.573   0.659
 6801SOL    HW130737   1.450   9.535   0.618
 6801SOL    HW230738   1.536   9.672   0.641
 6802SOL     OW30739   5.497   7.267   2.811
 6802SOL    HW130740   5.593   7.260   2.836
 6802SOL    HW230741   5.483   7.228   2.720
 6803SOL     OW30742   2.493   6.690   1.073
 6803SOL    HW130743   2.585   6.653   1.085
 6803SOL    HW230744   2.439   6.629   1.016
 6804SOL     OW30745   1.583   0.385   1.016
 6804SOL    HW130746   1.598   0.387   1.115
 6804SOL    HW230747   1.522   0.310   0.993
 6805SOL     OW30748   0.444   2.381   1.525
 6805SOL    HW130749   0.520   2.332   1.567
 6805SOL    HW230750   0.357   2.340   1.554
 6806SOL     OW30751   8.906   0.666   2.670
 6806SOL    HW130752   8.838   0.645   2.740
 6806SOL    HW230753   8.928   0.584   2.618
 6807SOL     OW30754   2.197   8.672   1.108
 6807SOL    HW130755   2.177   8.736   1.033
 6807SOL    HW230756   2.262   8.603   1.076
 6808SOL     OW30757   9.501   7.237   0.630
 6808SOL    HW130758   9.456   7.290   0.702
 6808SOL    HW230759   9.562   7.170   0.671
 6809SOL     OW30760   0.128   6.790   0.737
 6809SOL    HW130761   0.216   6.836   0.743
 6809SOL    HW230762   0.068   6.841   0.675
 6810SOL     OW30763   3.286   1.701   0.862
 6810SOL    HW130764   3.218   1.696   0.935
 6810SOL    HW230765   3.364   1.755   0.893
 6811SOL     OW30766   3.167   0.670   1.694
 6811SOL    HW130767   3.071   0.683   1.668
 6811SOL    HW230768   3.209   0.760   1.708
 6812SOL     OW30769   8.503   3.357   1.355
 6812SOL    HW130770   8.433   3.286   1.362
 6812SOL    HW230771   8.465   3.437   1.309
 6813SOL     OW30772   1.814   2.027   0.740
 6813SOL    HW130773   1.888   2.071   0.791
 6813SOL    HW230774   1.739   2.006   0.803
 6814SOL     OW30775   0.286   8.721   1.085
 6814SOL    HW130776   0.360   8.739   1.151
 6814SOL    HW230777   0.233   8.642   1.115
 6815SOL     OW30778   8.778   6.689   1.553
 6815SOL    HW130779   8.797   6.651   1.463
 6815SOL    HW230780   8.861   6.684   1.609
 6816SOL     OW30781   8.394   1.977   1.928
 6816SOL    HW130782   8.403   1.883   1.894
 6816SOL    HW230783   8.455   2.037   1.876
 6817SOL     OW30784   3.102   0.509   2.025
 6817SOL    HW130785   3.064   0.535   2.113
 6817SOL    HW230786   3.182   0.565   2.005
 6818SOL     OW30787   8.825   9.588   2.879
 6818SOL    HW130788   8.876   9.551   2.801
 6818SOL    HW230789   8.877   9.662   2.921
 6819SOL     OW30790   7.226   0.415   2.873
 6819SOL    HW130791   7.210   0.506   2.912
 6819SOL    HW230792   7.219   0.347   2.946
 6820SOL     OW30793   2.849   2.832   1.126
 6820SOL    HW130794   2.772   2.875   1.173
 6820SOL    HW230795   2.840   2.847   1.027
 6821SOL     OW30796   2.386   5.258   0.262
 6821SOL    HW130797   2.450   5.291   0.193
 6821SOL    HW230798   2.406   5.162   0.283
 6822SOL     OW30799   2.595   8.704   2.134
 6822SOL    HW130800   2.599   8.707   2.234
 6822SOL    HW230801   2.675   8.655   2.098
 6823SOL     OW30802   9.830   8.621   2.371
 6823SOL    HW130803   9.838   8.525   2.397
 6823SOL    HW230804   9.910   8.671   2.405
 6824SOL     OW30805   9.934   6.047   0.817
 6824SOL    HW130806   9.988   5.966   0.841
 6824SOL    HW230807   9.994   6.128   0.817
 6825SOL     OW30808   1.368   4.634   3.117
 6825SOL    HW130809   1.412   4.668   3.034
 6825SOL    HW230810   1.419   4.665   3.198
 6826SOL     OW30811   9.786   4.458   3.091
 6826SOL    HW130812   9.760   4.448   3.187
 6826SOL    HW230813   9.791   4.556   3.068
 6827SOL     OW30814   2.227   7.372   1.270
 6827SOL    HW130815   2.188   7.425   1.195
 6827SOL    HW230816   2.161   7.303   1.300
 6828SOL     OW30817   1.555   4.249   0.749
 6828SOL    HW130818   1.650   4.278   0.739
 6828SOL    HW230819   1.514   4.297   0.826
 6829SOL     OW30820   2.641   4.332   2.673
 6829SOL    HW130821   2.688   4.246   2.658
 6829SOL    HW230822   2.574   4.347   2.600
 6830SOL     OW30823   9.513   0.416   2.074
 6830SOL    HW130824   9.453   0.496   2.087
 6830SOL    HW230825   9.522   0.367   2.160
 6831SOL     OW30826   9.997   0.646   0.055
 6831SOL    HW130827   9.995   0.735   0.009
 6831SOL    HW230828   9.926   0.644   0.126
 6832SOL     OW30829   9.411   4.597   2.909
 6832SOL    HW130830   9.470   4.518   2.925
 6832SOL    HW230831   9.374   4.592   2.816
 6833SOL     OW30832   3.343   0.336   2.487
 6833SOL    HW130833   3.316   0.370   2.577
 6833SOL    HW230834   3.395   0.252   2.497
 6834SOL     OW30835   9.960   5.076   0.804
 6834SOL    HW130836   9.927   5.036   0.718
 6834SOL    HW230837   0.055   5.051   0.818
 6835SOL     OW30838   7.761   8.865   2.004
 6835SOL    HW130839   7.832   8.800   2.029
 6835SOL    HW230840   7.794   8.926   1.932
 6836SOL     OW30841   0.093   0.246   2.159
 6836SOL    HW130842   0.068   0.187   2.236
 6836SOL    HW230843   0.188   0.229   2.133
 6837SOL     OW30844   0.127   0.828   1.888
 6837SOL    HW130845   0.186   0.878   1.824
 6837SOL    HW230846   0.163   0.735   1.900
 6838SOL     OW30847   6.831   9.365   0.690
 6838SOL    HW130848   6.898   9.292   0.696
 6838SOL    HW230849   6.742   9.327   0.664
 6839SOL     OW30850   9.451   9.966   2.805
 6839SOL    HW130851   9.397   0.049   2.789
 6839SOL    HW230852   9.426   9.896   2.739
 6840SOL     OW30853   1.929   5.554   2.924
 6840SOL    HW130854   1.986   5.553   3.006
 6840SOL    HW230855   1.850   5.613   2.939
 6841SOL     OW30856   2.819   9.995   3.115
 6841SOL    HW130857   2.850   9.972   3.023
 6841SOL    HW230858   2.814   0.095   3.123
 6842SOL     OW30859   9.022   7.366   1.664
 6842SOL    HW130860   8.966   7.330   1.739
 6842SOL    HW230861   9.114   7.385   1.697
 6843SOL     OW30862   9.442   5.085   2.676
 6843SOL    HW130863   9.503   5.022   2.724
 6843SOL    HW230864   9.439   5.062   2.579
 6844SOL     OW30865   1.648   7.490   2.979
 6844SOL    HW130866   1.610   7.398   2.990
 6844SOL    HW230867   1.575   7.554   2.955
 6845SOL     OW30868   4.830   9.569   0.210
 6845SOL    HW130869   4.854   9.524   0.124
 6845SOL    HW230870   4.742   9.537   0.242
 6846SOL     OW30871   1.784   2.211   1.224
 6846SOL    HW130872   1.757   2.280   1.291
 6846SOL    HW230873   1.812   2.256   1.140
 6847SOL     OW30874   4.476   3.611   0.735
 6847SOL    HW130875   4.405   3.577   0.796
 6847SOL    HW230876   4.470   3.563   0.648
 6848SOL     OW30877   3.294   6.754   0.854
 6848SOL    HW130878   3.263   6.687   0.921
 6848SOL    HW230879   3.359   6.710   0.791
 6849SOL     OW30880   4.829   8.816   1.975
 6849SOL    HW130881   4.766   8.774   2.040
 6849SOL    HW230882   4.901   8.751   1.951
 6850SOL     OW30883   9.102   7.283   0.794
 6850SOL    HW130884   9.142   7.192   0.802
 6850SOL    HW230885   9.003   7.275   0.776
 6851SOL     OW30886   3.879   6.649   3.082
 6851SOL    HW130887   3.889   6.618   3.177
 6851SOL    HW230888   3.849   6.744   3.080
 6852SOL     OW30889   5.190   7.744   2.192
 6852SOL    HW130890   5.282   7.721   2.224
 6852SOL    HW230891   5.142   7.796   2.262
 6853SOL     OW30892   3.350   5.564   1.657
 6853SOL    HW130893   3.407   5.595   1.733
 6853SOL    HW230894   3.404   5.562   1.573
 6854SOL     OW30895   2.223   2.616   1.537
 6854SOL    HW130896   2.129   2.637   1.561
 6854SOL    HW230897   2.233   2.518   1.524
 6855SOL     OW30898   1.712   3.442   0.109
 6855SOL    HW130899   1.663   3.445   0.196
 6855SOL    HW230900   1.792   3.502   0.114
 6856SOL     OW30901   1.248   0.507   3.009
 6856SOL    HW130902   1.198   0.550   2.934
 6856SOL    HW230903   1.332   0.467   2.974
 6857SOL     OW30904   0.494   8.014   0.619
 6857SOL    HW130905   0.541   8.039   0.703
 6857SOL    HW230906   0.441   8.092   0.586
 6858SOL     OW30907   9.289   6.768   0.860
 6858SOL    HW130908   9.272   6.729   0.770
 6858SOL    HW230909   9.209   6.754   0.919
 6859SOL     OW30910   1.869   7.449   0.997
 6859SOL    HW130911   1.801   7.520   1.014
 6859SOL    HW230912   1.959   7.480   1.029
 6860SOL     OW30913   1.076   8.465   2.361
 6860SOL    HW130914   1.128   8.423   2.287
 6860SOL    HW230915   0.978   8.464   2.339
 6861SOL     OW30916   3.869   1.892   0.141
 6861SOL    HW130917   3.844   1.880   0.237
 6861SOL    HW230918   3.791   1.926   0.089
 6862SOL     OW30919   9.131   8.582   2.577
 6862SOL    HW130920   9.192   8.629   2.640
 6862SOL    HW230921   9.047   8.557   2.624
 6863SOL     OW30922   4.555   0.577   1.949
 6863SOL    HW130923   4.540   0.657   2.006
 6863SOL    HW230924   4.467   0.541   1.917
 6864SOL     OW30925   3.455   8.216   2.135
 6864SOL    HW130926   3.400   8.143   2.176
 6864SOL    HW230927   3.531   8.238   2.196
 6865SOL     OW30928   8.733   0.985   2.896
 6865SOL    HW130929   8.692   0.966   2.806
 6865SOL    HW230930   8.690   0.926   2.965
 6866SOL     OW30931   0.413   8.853   0.273
 6866SOL    HW130932   0.398   8.754   0.277
 6866SOL    HW230933   0.325   8.899   0.261
 6867SOL     OW30934   8.734   1.864   0.217
 6867SOL    HW130935   8.828   1.877   0.186
 6867SOL    HW230936   8.734   1.850   0.317
 6868SOL     OW30937   0.338   2.025   1.489
 6868SOL    HW130938   0.412   2.057   1.431
 6868SOL    HW230939   0.365   1.942   1.537
 6869SOL     OW30940   0.787   3.061   1.988
 6869SOL    HW130941   0.803   3.157   1.965
 6869SOL    HW230942   0.758   3.054   2.084
 6870SOL     OW30943   0.145   3.906   2.879
 6870SOL    HW130944   0.091   3.853   2.945
 6870SOL    HW230945   0.126   3.873   2.786
 6871SOL     OW30946   4.634   5.582   2.367
 6871SOL    HW130947   4.703   5.511   2.350
 6871SOL    HW230948   4.543   5.542   2.361
 6872SOL     OW30949   3.318   6.083   2.944
 6872SOL    HW130950   3.293   6.018   3.016
 6872SOL    HW230951   3.401   6.052   2.899
 6873SOL     OW30952   0.806   7.977   1.095
 6873SOL    HW130953   0.893   7.936   1.066
 6873SOL    HW230954   0.758   8.014   1.016
 6874SOL     OW30955   1.999   1.978   2.649
 6874SOL    HW130956   2.002   2.029   2.563
 6874SOL    HW230957   1.943   1.896   2.637
 6875SOL     OW30958   1.140   2.978   2.834
 6875SOL    HW130959   1.106   3.069   2.810
 6875SOL    HW230960   1.114   2.912   2.764
 6876SOL     OW30961   8.335   1.811   0.538
 6876SOL    HW130962   8.301   1.792   0.630
 6876SOL    HW230963   8.302   1.900   0.507
 6877SOL     OW30964   2.447   1.527   1.406
 6877SOL    HW130965   2.532   1.515   1.356
 6877SOL    HW230966   2.467   1.533   1.504
 6878SOL     OW30967   9.416   5.649   1.658
 6878SOL    HW130968   9.333   5.622   1.609
 6878SOL    HW230969   9.401   5.737   1.704
 6879SOL     OW30970   1.467   1.497   2.383
 6879SOL    HW130971   1.378   1.457   2.407
 6879SOL    HW230972   1.459   1.548   2.298
 6880SOL     OW30973   8.642   9.689   1.025
 6880SOL    HW130974   8.591   9.606   1.046
 6880SOL    HW230975   8.591   9.744   0.959
 6881SOL     OW30976   9.336   2.673   0.271
 6881SOL    HW130977   9.287   2.662   0.185
 6881SOL    HW230978   9.340   2.769   0.296
 6882SOL     OW30979   0.947   5.102   1.647
 6882SOL    HW130980   0.956   5.034   1.721
 6882SOL    HW230981   1.038   5.127   1.615
 6883SOL     OW30982   2.584   0.030   1.552
 6883SOL    HW130983   2.649   9.990   1.488
 6883SOL    HW230984   2.556   0.121   1.519
 6884SOL     OW30985   1.322   0.289   0.432
 6884SOL    HW130986   1.249   0.221   0.426
 6884SOL    HW230987   1.409   0.246   0.406
 6885SOL     OW30988   3.793   7.126   2.781
 6885SOL    HW130989   3.721   7.194   2.793
 6885SOL    HW230990   3.839   7.140   2.693
 6886SOL     OW30991   8.518   7.532   1.262
 6886SOL    HW130992   8.477   7.600   1.200
 6886SOL    HW230993   8.611   7.561   1.285
 6887SOL     OW30994   1.152   6.291   0.647
 6887SOL    HW130995   1.167   6.246   0.735
 6887SOL    HW230996   1.086   6.365   0.659
 6888SOL     OW30997   1.400   2.716   1.555
 6888SOL    HW130998   1.443   2.802   1.582
 6888SOL    HW230999   1.331   2.691   1.623
 6889SOL     OW31000   2.402   6.091   0.875
 6889SOL    HW131001   2.492   6.048   0.867
 6889SOL    HW231002   2.395   6.165   0.808
 6890SOL     OW31003   9.599   1.474   2.172
 6890SOL    HW131004   9.516   1.422   2.153
 6890SOL    HW231005   9.675   1.412   2.192
 6891SOL     OW31006   0.657   1.990   3.145
 6891SOL    HW131007   0.559   2.001   3.130
 6891SOL    HW231008   0.673   1.934   3.226
 6892SOL     OW31009   8.697   3.163   0.863
 6892SOL    HW131010   8.626   3.096   0.886
 6892SOL    HW231011   8.757   3.176   0.942
 6893SOL     OW31012   9.009   3.569   2.711
 6893SOL    HW131013   9.019   3.592   2.809
 6893SOL    HW231014   9.079   3.503   2.685
 6894SOL     OW31015   2.156   3.101   0.355
 6894SOL    HW131016   2.068   3.055   0.341
 6894SOL    HW231017   2.225   3.061   0.295
 6895SOL     OW31018   9.262   5.026   2.219
 6895SOL    HW131019   9.207   5.100   2.182
 6895SOL    HW231020   9.233   4.939   2.178
 6896SOL     OW31021   9.709   5.566   2.034
 6896SOL    HW131022   9.697   5.475   2.074
 6896SOL    HW231023   9.803   5.575   1.999
 6897SOL     OW31024   3.065   9.817   1.234
 6897SOL    HW131025   3.118   9.827   1.318
 6897SOL    HW231026   2.984   9.761   1.252
 6898SOL     OW31027   4.204   3.777   1.418
 6898SOL    HW131028   4.180   3.801   1.324
 6898SOL    HW231029   4.251   3.689   1.418
 6899SOL     OW31030   9.796   8.365   1.242
 6899SOL    HW131031   9.726   8.315   1.191
 6899SOL    HW231032   9.822   8.313   1.323
 6900SOL     OW31033   5.071   1.241   1.357
 6900SOL    HW131034   4.993   1.250   1.295
 6900SOL    HW231035   5.060   1.159   1.413
 6901SOL     OW31036   8.481   3.509   1.940
 6901SOL    HW131037   8.414   3.479   1.872
 6901SOL    HW231038   8.433   3.534   2.025
 6902SOL     OW31039   2.260   6.015   0.204
 6902SOL    HW131040   2.305   5.939   0.157
 6902SOL    HW231041   2.176   5.983   0.248
 6903SOL     OW31042   8.708   0.394   2.651
 6903SOL    HW131043   8.702   0.463   2.722
 6903SOL    HW231044   8.797   0.400   2.606
 6904SOL     OW31045   3.314   9.136   2.080
 6904SOL    HW131046   3.347   9.207   2.017
 6904SOL    HW231047   3.224   9.163   2.115
 6905SOL     OW31048   2.082   2.419   2.113
 6905SOL    HW131049   2.115   2.332   2.148
 6905SOL    HW231050   2.138   2.494   2.149
 6906SOL     OW31051   9.679   6.375   1.696
 6906SOL    HW131052   9.633   6.317   1.628
 6906SOL    HW231053   9.736   6.442   1.649
 6907SOL     OW31054   6.394   0.101   2.146
 6907SOL    HW131055   6.422   0.005   2.152
 6907SOL    HW231056   6.417   0.138   2.056
 6908SOL     OW31057   2.154   4.523   1.056
 6908SOL    HW131058   2.061   4.493   1.041
 6908SOL    HW231059   2.155   4.622   1.071
 6909SOL     OW31060   3.513   5.998   1.921
 6909SOL    HW131061   3.415   6.021   1.923
 6909SOL    HW231062   3.542   5.984   1.826
 6910SOL     OW31063   1.992   9.626   2.730
 6910SOL    HW131064   1.965   9.620   2.634
 6910SOL    HW231065   1.952   9.708   2.771
 6911SOL     OW31066   1.271   1.962   2.343
 6911SOL    HW131067   1.294   2.034   2.408
 6911SOL    HW231068   1.356   1.922   2.307
 6912SOL     OW31069   4.208   6.243   2.713
 6912SOL    HW131070   4.172   6.331   2.683
 6912SOL    HW231071   4.307   6.249   2.724
 6913SOL     OW31072   1.698   0.863   2.217
 6913SOL    HW131073   1.631   0.801   2.176
 6913SOL    HW231074   1.691   0.953   2.174
 6914SOL     OW31075   7.129   8.618   2.258
 6914SOL    HW131076   7.114   8.612   2.357
 6914SOL    HW231077   7.194   8.692   2.238
 6915SOL     OW31078   7.548   7.766   2.980
 6915SOL    HW131079   7.478   7.837   2.977
 6915SOL    HW231080   7.620   7.786   2.913
 6916SOL     OW31081   2.364   8.320   0.348
 6916SOL    HW131082   2.332   8.401   0.298
 6916SOL    HW231083   2.462   8.330   0.368
 6917SOL     OW31084   8.493   2.154   2.122
 6917SOL    HW131085   8.505   2.237   2.068
 6917SOL    HW231086   8.457   2.081   2.064
 6918SOL     OW31087   0.305   0.158   1.812
 6918SOL    HW131088   0.216   0.156   1.767
 6918SOL    HW231089   0.344   0.066   1.811
 6919SOL     OW31090   0.940   5.790   2.004
 6919SOL    HW131091   1.023   5.733   2.005
 6919SOL    HW231092   0.948   5.859   1.932
 6920SOL     OW31093   7.789   0.003   2.746
 6920SOL    HW131094   7.756   0.095   2.765
 6920SOL    HW231095   7.729   9.936   2.790
 6921SOL     OW31096   9.134   9.521   0.725
 6921SOL    HW131097   9.171   9.562   0.808
 6921SOL    HW231098   9.144   9.586   0.649
 6922SOL     OW31099   9.958   9.731   0.707
 6922SOL    HW131100   0.025   9.658   0.709
 6922SOL    HW231101   9.887   9.710   0.640
 6923SOL     OW31102   1.445   7.769   0.071
 6923SOL    HW131103   1.539   7.800   0.087
 6923SOL    HW231104   1.420   7.703   0.141
 6924SOL     OW31105   4.925   1.859   1.318
 6924SOL    HW131106   4.916   1.856   1.218
 6924SOL    HW231107   5.016   1.829   1.344
 6925SOL     OW31108   3.155   3.901   1.622
 6925SOL    HW131109   3.099   3.948   1.554
 6925SOL    HW231110   3.113   3.813   1.644
 6926SOL     OW31111   9.939   6.758   1.653
 6926SOL    HW131112   0.016   6.820   1.640
 6926SOL    HW231113   9.889   6.784   1.735
 6927SOL     OW31114   7.218   0.311   2.620
 6927SOL    HW131115   7.223   0.342   2.715
 6927SOL    HW231116   7.205   0.212   2.618
 6928SOL     OW31117   4.596   0.689   2.329
 6928SOL    HW131118   4.569   0.725   2.240
 6928SOL    HW231119   4.683   0.641   2.320
 6929SOL     OW31120   3.834   0.202   0.431
 6929SOL    HW131121   3.851   0.301   0.426
 6929SOL    HW231122   3.758   0.185   0.493
 6930SOL     OW31123   7.579   0.125   1.410
 6930SOL    HW131124   7.546   0.169   1.326
 6930SOL    HW231125   7.678   0.114   1.405
 6931SOL     OW31126   1.662   8.202   1.146
 6931SOL    HW131127   1.645   8.159   1.235
 6931SOL    HW231128   1.713   8.286   1.159
 6932SOL     OW31129   8.215   2.902   1.076
 6932SOL    HW131130   8.263   2.814   1.081
 6932SOL    HW231131   8.145   2.898   1.005
 6933SOL     OW31132   8.736   1.835   0.489
 6933SOL    HW131133   8.710   1.917   0.539
 6933SOL    HW231134   8.670   1.762   0.506
 6934SOL     OW31135   7.483   7.509   3.030
 6934SOL    HW131136   7.504   7.605   3.013
 6934SOL    HW231137   7.494   7.489   3.127
 6935SOL     OW31138   8.810   6.735   1.928
 6935SOL    HW131139   8.753   6.653   1.929
 6935SOL    HW231140   8.882   6.725   1.859
 6936SOL     OW31141   4.209   4.677   1.782
 6936SOL    HW131142   4.187   4.584   1.752
 6936SOL    HW231143   4.149   4.703   1.858
 6937SOL     OW31144   9.456   6.572   0.052
 6937SOL    HW131145   9.391   6.518   0.106
 6937SOL    HW231146   9.479   6.522   4.009
 6938SOL     OW31147   1.422   3.788   2.230
 6938SOL    HW131148   1.359   3.863   2.248
 6938SOL    HW231149   1.373   3.714   2.184
 6939SOL     OW31150   1.363   7.912   0.817
 6939SOL    HW131151   1.350   7.983   0.748
 6939SOL    HW231152   1.407   7.951   0.898
 6940SOL     OW31153   1.877   6.341   2.823
 6940SOL    HW131154   1.952   6.300   2.875
 6940SOL    HW231155   1.827   6.270   2.774
 6941SOL     OW31156   9.397   9.861   0.457
 6941SOL    HW131157   9.473   9.919   0.488
 6941SOL    HW231158   9.411   9.838   0.361
 6942SOL     OW31159   7.386   9.213   1.425
 6942SOL    HW131160   7.378   9.222   1.525
 6942SOL    HW231161   7.337   9.288   1.381
 6943SOL     OW31162   3.425   2.990   1.394
 6943SOL    HW131163   3.362   3.002   1.317
 6943SOL    HW231164   3.518   3.011   1.366
 6944SOL     OW31165   9.799   4.138   2.467
 6944SOL    HW131166   9.851   4.222   2.486
 6944SOL    HW231167   9.823   4.105   2.375
 6945SOL     OW31168   4.052   3.324   1.211
 6945SOL    HW131169   3.999   3.381   1.273
 6945SOL    HW231170   4.149   3.332   1.232
 6946SOL     OW31171   2.557   7.287   0.156
 6946SOL    HW131172   2.614   7.211   0.187
 6946SOL    HW231173   2.615   7.358   0.115
 6947SOL     OW31174   2.690   9.637   1.709
 6947SOL    HW131175   2.763   9.695   1.674
 6947SOL    HW231176   2.673   9.658   1.805
 6948SOL     OW31177   7.507   8.617   1.621
 6948SOL    HW131178   7.426   8.647   1.571
 6948SOL    HW231179   7.527   8.683   1.694
 6949SOL     OW31180   3.752   3.336   1.593
 6949SOL    HW131181   3.805   3.253   1.610
 6949SOL    HW231182   3.704   3.363   1.676
 6950SOL     OW31183   0.325   4.905   1.288
 6950SOL    HW131184   0.310   4.892   1.190
 6950SOL    HW231185   0.372   4.993   1.303
 6951SOL     OW31186   3.643   3.499   1.292
 6951SOL    HW131187   3.734   3.489   1.331
 6951SOL    HW231188   3.637   3.586   1.243
 6952SOL     OW31189   8.667   8.084   1.078
 6952SOL    HW131190   8.736   8.156   1.084
 6952SOL    HW231191   8.699   8.002   1.126
 6953SOL     OW31192   4.158   1.398   1.170
 6953SOL    HW131193   4.254   1.418   1.151
 6953SOL    HW231194   4.105   1.406   1.085
 6954SOL     OW31195   0.950   9.268   1.258
 6954SOL    HW131196   1.047   9.293   1.259
 6954SOL    HW231197   0.925   9.231   1.347
 6955SOL     OW31198   1.030   7.611   1.189
 6955SOL    HW131199   1.119   7.581   1.222
 6955SOL    HW231200   0.964   7.536   1.199
 6956SOL     OW31201   7.955   1.709   0.725
 6956SOL    HW131202   7.977   1.789   0.669
 6956SOL    HW231203   7.877   1.730   0.784
 6957SOL     OW31204   0.819   0.284   3.075
 6957SOL    HW131205   0.914   0.302   3.097
 6957SOL    HW231206   0.801   0.306   2.979
 6958SOL     OW31207   1.289   4.536   1.148
 6958SOL    HW131208   1.283   4.630   1.114
 6958SOL    HW231209   1.342   4.480   1.085
 6959SOL     OW31210   8.416   7.297   1.357
 6959SOL    HW131211   8.443   7.386   1.321
 6959SOL    HW231212   8.451   7.286   1.450
 6960SOL     OW31213   2.048   7.166   1.325
 6960SOL    HW131214   1.970   7.147   1.266
 6960SOL    HW231215   2.103   7.083   1.336
 6961SOL     OW31216   5.938   7.599   3.108
 6961SOL    HW131217   5.931   7.528   3.038
 6961SOL    HW231218   5.853   7.604   3.160
 6962SOL     OW31219   2.265   0.186   0.914
 6962SOL    HW131220   2.224   0.104   0.874
 6962SOL    HW231221   2.341   0.217   0.856
 6963SOL     OW31222   2.131   0.589   1.747
 6963SOL    HW131223   2.176   0.518   1.801
 6963SOL    HW231224   2.196   0.663   1.729
 6964SOL     OW31225   3.308   4.674   3.064
 6964SOL    HW131226   3.280   4.669   2.968
 6964SOL    HW231227   3.365   4.755   3.078
 6965SOL     OW31228   1.247   6.619   1.046
 6965SOL    HW131229   1.288   6.691   1.101
 6965SOL    HW231230   1.204   6.658   0.965
 6966SOL     OW31231   3.622   3.264   1.148
 6966SOL    HW131232   3.621   3.346   1.205
 6966SOL    HW231233   3.639   3.289   1.053
 6967SOL     OW31234   0.405   1.227   0.648
 6967SOL    HW131235   0.475   1.156   0.651
 6967SOL    HW231236   0.314   1.185   0.650
 6968SOL     OW31237   0.126   0.423   0.151
 6968SOL    HW131238   0.058   0.352   0.168
 6968SOL    HW231239   0.082   0.502   0.108
 6969SOL     OW31240   2.030   8.607   0.662
 6969SOL    HW131241   2.091   8.685   0.673
 6969SOL    HW231242   2.009   8.568   0.751
 6970SOL     OW31243   2.277   7.977   0.889
 6970SOL    HW131244   2.187   8.011   0.917
 6970SOL    HW231245   2.308   7.908   0.954
 6971SOL     OW31246   1.258   4.603   0.579
 6971SOL    HW131247   1.164   4.635   0.596
 6971SOL    HW231248   1.302   4.662   0.512
 6972SOL     OW31249   4.781   8.902   2.684
 6972SOL    HW131250   4.754   8.965   2.611
 6972SOL    HW231251   4.711   8.831   2.693
 6973SOL     OW31252   9.140   1.001   2.609
 6973SOL    HW131253   9.198   1.081   2.593
 6973SOL    HW231254   9.089   1.013   2.694
 6974SOL     OW31255   2.193   6.277   0.163
 6974SOL    HW131256   2.095   6.281   0.141
 6974SOL    HW231257   2.222   6.182   0.172
 6975SOL     OW31258   8.224   8.514   1.016
 6975SOL    HW131259   8.246   8.598   0.967
 6975SOL    HW231260   8.281   8.439   0.982
 6976SOL     OW31261   2.645   9.446   2.697
 6976SOL    HW131262   2.559   9.396   2.687
 6976SOL    HW231263   2.653   9.482   2.790
 6977SOL     OW31264   2.235   1.537   2.159
 6977SOL    HW131265   2.163   1.473   2.184
 6977SOL    HW231266   2.273   1.580   2.241
 6978SOL     OW31267   3.516   1.853   0.920
 6978SOL    HW131268   3.599   1.800   0.935
 6978SOL    HW231269   3.518   1.893   0.828
 6979SOL     OW31270   8.527   7.428   2.472
 6979SOL    HW131271   8.490   7.336   2.482
 6979SOL    HW231272   8.454   7.491   2.447
 6980SOL     OW31273   2.917   3.837   0.426
 6980SOL    HW131274   2.967   3.911   0.381
 6980SOL    HW231275   2.916   3.853   0.525
 6981SOL     OW31276   1.550   9.271   0.392
 6981SOL    HW131277   1.515   9.186   0.432
 6981SOL    HW231278   1.585   9.252   0.300
 6982SOL     OW31279   2.574   0.349   2.504
 6982SOL    HW131280   2.618   0.354   2.414
 6982SOL    HW231281   2.478   0.375   2.496
 6983SOL     OW31282   1.104   8.428   1.689
 6983SOL    HW131283   1.125   8.366   1.764
 6983SOL    HW231284   1.006   8.424   1.668
 6984SOL     OW31285   9.736   5.860   0.603
 6984SOL    HW131286   9.825   5.887   0.567
 6984SOL    HW231287   9.715   5.915   0.684
 6985SOL     OW31288   4.916   8.836   1.341
 6985SOL    HW131289   4.945   8.756   1.289
 6985SOL    HW231290   4.822   8.822   1.374
 6986SOL     OW31291   0.764   1.142   0.372
 6986SOL    HW131292   0.723   1.051   0.359
 6986SOL    HW231293   0.822   1.164   0.293
 6987SOL     OW31294   1.277   6.926   1.010
 6987SOL    HW131295   1.217   6.952   1.086
 6987SOL    HW231296   1.339   7.001   0.989
 6988SOL     OW31297   0.100   5.687   0.214
 6988SOL    HW131298   0.138   5.594   0.223
 6988SOL    HW231299   0.003   5.685   0.236
 6989SOL     OW31300   4.391   2.561   0.561
 6989SOL    HW131301   4.398   2.657   0.536
 6989SOL    HW231302   4.388   2.505   0.478
 6990SOL     OW31303   1.440   9.655   1.646
 6990SOL    HW131304   1.387   9.571   1.635
 6990SOL    HW231305   1.537   9.632   1.649
 6991SOL     OW31306   0.192   3.470   1.770
 6991SOL    HW131307   0.168   3.530   1.847
 6991SOL    HW231308   0.229   3.525   1.695
 6992SOL     OW31309   4.087   8.222   1.038
 6992SOL    HW131310   4.114   8.307   1.081
 6992SOL    HW231311   4.113   8.223   0.941
 6993SOL     OW31312   3.749   4.599   1.647
 6993SOL    HW131313   3.757   4.550   1.560
 6993SOL    HW231314   3.813   4.676   1.647
 6994SOL     OW31315   3.641   6.066   2.618
 6994SOL    HW131316   3.700   6.145   2.601
 6994SOL    HW231317   3.695   5.982   2.613
 6995SOL     OW31318   4.322   0.472   1.291
 6995SOL    HW131319   4.360   0.520   1.370
 6995SOL    HW231320   4.393   0.416   1.249
 6996SOL     OW31321   1.107   2.183   0.300
 6996SOL    HW131322   1.009   2.163   0.290
 6996SOL    HW231323   1.155   2.100   0.327
 6997SOL     OW31324   1.472   5.091   3.063
 6997SOL    HW131325   1.555   5.081   3.009
 6997SOL    HW231326   1.429   5.179   3.041
 6998SOL     OW31327   9.063   8.427   1.170
 6998SOL    HW131328   9.122   8.478   1.232
 6998SOL    HW231329   9.038   8.486   1.093
 6999SOL     OW31330   1.851   1.505   2.021
 6999SOL    HW131331   1.933   1.448   2.024
 6999SOL    HW231332   1.856   1.568   1.944
 7000SOL     OW31333   8.540   9.728   0.578
 7000SOL    HW131334   8.541   9.753   0.481
 7000SOL    HW231335   8.467   9.778   0.624
 7001SOL     OW31336   8.227   6.111   1.497
 7001SOL    HW131337   8.176   6.106   1.411
 7001SOL    HW231338   8.210   6.199   1.541
 7002SOL     OW31339   4.619   0.258   2.353
 7002SOL    HW131340   4.520   0.250   2.361
 7002SOL    HW231341   4.642   0.306   2.268
 7003SOL     OW31342   3.863   6.016   2.368
 7003SOL    HW131343   3.830   6.101   2.327
 7003SOL    HW231344   3.926   6.038   2.443
 7004SOL     OW31345   3.589   7.771   0.978
 7004SOL    HW131346   3.561   7.805   0.888
 7004SOL    HW231347   3.688   7.776   0.985
 7005SOL     OW31348   1.399   4.385   2.131
 7005SOL    HW131349   1.416   4.454   2.061
 7005SOL    HW231350   1.390   4.429   2.221
 7006SOL     OW31351   8.244   9.917   2.014
 7006SOL    HW131352   8.306   9.938   1.939
 7006SOL    HW231353   8.274   9.833   2.060
 7007SOL     OW31354   3.066   5.872   2.864
 7007SOL    HW131355   3.079   5.774   2.851
 7007SOL    HW231356   3.022   5.888   2.953
 7008SOL     OW31357   0.399   4.806   0.716
 7008SOL    HW131358   0.380   4.784   0.620
 7008SOL    HW231359   0.406   4.722   0.769
 7009SOL     OW31360   4.780   7.566   0.667
 7009SOL    HW131361   4.717   7.643   0.654
 7009SOL    HW231362   4.866   7.585   0.620
 7010SOL     OW31363   3.940   8.608   1.112
 7010SOL    HW131364   3.908   8.617   1.018
 7010SOL    HW231365   3.865   8.573   1.170
 7011SOL     OW31366   5.616   8.509   2.421
 7011SOL    HW131367   5.524   8.469   2.419
 7011SOL    HW231368   5.679   8.444   2.463
 7012SOL     OW31369   9.441   1.810   0.056
 7012SOL    HW131370   9.372   1.852   0.114
 7012SOL    HW231371   9.475   1.877   4.031
 7013SOL     OW31372   0.331   5.267   1.728
 7013SOL    HW131373   0.410   5.326   1.745
 7013SOL    HW231374   0.282   5.299   1.647
 7014SOL     OW31375   8.403   7.193   2.535
 7014SOL    HW131376   8.373   7.200   2.630
 7014SOL    HW231377   8.439   7.101   2.519
 7015SOL     OW31378   7.419   3.323   0.404
 7015SOL    HW131379   7.484   3.337   0.478
 7015SOL    HW231380   7.466   3.282   0.326
 7016SOL     OW31381   4.421   4.926   2.233
 7016SOL    HW131382   4.490   4.891   2.296
 7016SOL    HW231383   4.343   4.863   2.229
 7017SOL     OW31384   4.050   8.059   1.256
 7017SOL    HW131385   4.062   8.112   1.172
 7017SOL    HW231386   4.020   7.967   1.233
 7018SOL     OW31387   9.034   5.541   0.223
 7018SOL    HW131388   9.076   5.492   0.299
 7018SOL    HW231389   9.057   5.638   0.229
 7019SOL     OW31390   8.917   6.076   0.700
 7019SOL    HW131391   8.890   6.096   0.794
 7019SOL    HW231392   8.837   6.056   0.645
 7020SOL     OW31393   0.265   4.354   0.239
 7020SOL    HW131394   0.330   4.426   0.214
 7020SOL    HW231395   0.281   4.274   0.182
 7021SOL     OW31396   1.968   5.534   2.348
 7021SOL    HW131397   1.883   5.503   2.305
 7021SOL    HW231398   2.044   5.521   2.285
 7022SOL     OW31399   3.552   0.510   3.119
 7022SOL    HW131400   3.625   0.526   3.053
 7022SOL    HW231401   3.568   0.423   3.166
 7023SOL     OW31402   6.380   9.305   1.793
 7023SOL    HW131403   6.341   9.359   1.719
 7023SOL    HW231404   6.404   9.214   1.759
 7024SOL     OW31405   7.807   2.454   0.037
 7024SOL    HW131406   7.828   2.461   3.980
 7024SOL    HW231407   7.892   2.442   0.088
 7025SOL     OW31408   0.853   5.713   2.472
 7025SOL    HW131409   0.866   5.682   2.378
 7025SOL    HW231410   0.783   5.657   2.517
 7026SOL     OW31411   4.503   8.575   1.455
 7026SOL    HW131412   4.583   8.518   1.475
 7026SOL    HW231413   4.433   8.519   1.412
 7027SOL     OW31414   3.779   7.064   0.100
 7027SOL    HW131415   3.848   7.127   0.136
 7027SOL    HW231416   3.694   7.113   0.084
 7028SOL     OW31417   0.768   0.279   0.237
 7028SOL    HW131418   0.701   0.207   0.218
 7028SOL    HW231419   0.835   0.283   0.162
 7029SOL     OW31420   0.557   4.582   1.780
 7029SOL    HW131421   0.459   4.563   1.786
 7029SOL    HW231422   0.571   4.671   1.735
 7030SOL     OW31423   4.549   9.316   0.528
 7030SOL    HW131424   4.453   9.291   0.537
 7030SOL    HW231425   4.568   9.398   0.582
 7031SOL     OW31426   8.779   1.574   1.590
 7031SOL    HW131427   8.740   1.597   1.679
 7031SOL    HW231428   8.819   1.482   1.594
 7032SOL     OW31429   9.632   2.318   2.328
 7032SOL    HW131430   9.719   2.268   2.327
 7032SOL    HW231431   9.623   2.366   2.415
 7033SOL     OW31432   0.506   2.494   0.173
 7033SOL    HW131433   0.458   2.568   0.220
 7033SOL    HW231434   0.591   2.529   0.135
 7034SOL     OW31435   2.613   3.904   1.577
 7034SOL    HW131436   2.693   3.957   1.606
 7034SOL    HW231437   2.534   3.966   1.569
 7035SOL     OW31438   1.249   2.633   1.767
 7035SOL    HW131439   1.250   2.538   1.738
 7035SOL    HW231440   1.319   2.649   1.836
 7036SOL     OW31441   0.602   1.965   1.713
 7036SOL    HW131442   0.519   1.910   1.701
 7036SOL    HW231443   0.652   1.932   1.793
 7037SOL     OW31444   2.497   4.878   2.285
 7037SOL    HW131445   2.589   4.886   2.246
 7037SOL    HW231446   2.477   4.959   2.340
 7038SOL     OW31447   4.220   8.246   1.884
 7038SOL    HW131448   4.282   8.323   1.872
 7038SOL    HW231449   4.157   8.242   1.806
 7039SOL     OW31450   8.570   6.861   1.548
 7039SOL    HW131451   8.647   6.799   1.558
 7039SOL    HW231452   8.494   6.813   1.503
 7040SOL     OW31453   8.723   7.942   2.305
 7040SOL    HW131454   8.776   7.868   2.346
 7040SOL    HW231455   8.627   7.915   2.299
 7041SOL     OW31456   3.997   0.624   0.815
 7041SOL    HW131457   3.987   0.524   0.810
 7041SOL    HW231458   3.935   0.660   0.885
 7042SOL     OW31459   8.321   6.606   0.856
 7042SOL    HW131460   8.415   6.594   0.823
 7042SOL    HW231461   8.258   6.558   0.794
 7043SOL     OW31462   8.966   9.787   0.826
 7043SOL    HW131463   8.922   9.698   0.833
 7043SOL    HW231464   9.027   9.800   0.904
 7044SOL     OW31465   1.367   3.769   1.652
 7044SOL    HW131466   1.397   3.676   1.670
 7044SOL    HW231467   1.299   3.796   1.721
 7045SOL     OW31468   1.387   1.828   0.152
 7045SOL    HW131469   1.459   1.806   0.217
 7045SOL    HW231470   1.428   1.847   0.062
 7046SOL     OW31471   8.964   0.264   3.187
 7046SOL    HW131472   8.999   0.229   3.101
 7046SOL    HW231473   8.874   0.225   3.206
 7047SOL     OW31474   3.041   2.502   2.883
 7047SOL    HW131475   2.987   2.547   2.954
 7047SOL    HW231476   2.981   2.478   2.806
 7048SOL     OW31477   4.063   0.052   0.492
 7048SOL    HW131478   3.980   0.100   0.467
 7048SOL    HW231479   4.046   9.953   0.492
 7049SOL     OW31480   9.341   2.368   1.701
 7049SOL    HW131481   9.413   2.373   1.631
 7049SOL    HW231482   9.318   2.273   1.719
 7050SOL     OW31483   9.391   8.942   2.582
 7050SOL    HW131484   9.475   8.894   2.557
 7050SOL    HW231485   9.350   8.898   2.662
 7051SOL     OW31486   3.067   9.139   0.952
 7051SOL    HW131487   3.034   9.165   0.861
 7051SOL    HW231488   2.990   9.123   1.013
 7052SOL     OW31489   8.378   6.702   1.417
 7052SOL    HW131490   8.326   6.764   1.358
 7052SOL    HW231491   8.413   6.626   1.364
 7053SOL     OW31492   8.388   6.706   0.562
 7053SOL    HW131493   8.311   6.745   0.613
 7053SOL    HW231494   8.454   6.667   0.626
 7054SOL     OW31495   4.225   1.502   2.717
 7054SOL    HW131496   4.196   1.552   2.799
 7054SOL    HW231497   4.145   1.473   2.665
 7055SOL     OW31498   9.967   5.330   0.909
 7055SOL    HW131499   9.958   5.240   0.866
 7055SOL    HW231500   0.002   5.319   1.002
 7056SOL     OW31501   1.334   5.540   0.912
 7056SOL    HW131502   1.393   5.600   0.966
 7056SOL    HW231503   1.320   5.580   0.821
 7057SOL     OW31504   8.606   7.473   2.729
 7057SOL    HW131505   8.656   7.402   2.780
 7057SOL    HW231506   8.592   7.443   2.635
 7058SOL     OW31507   2.449   5.287   0.935
 7058SOL    HW131508   2.549   5.289   0.928
 7058SOL    HW231509   2.411   5.236   0.858
 7059SOL     OW31510   8.203   9.147   2.051
 7059SOL    HW131511   8.245   9.200   2.125
 7059SOL    HW231512   8.266   9.142   1.974
 7060SOL     OW31513   3.067   8.838   1.456
 7060SOL    HW131514   3.036   8.922   1.412
 7060SOL    HW231515   3.010   8.820   1.537
 7061SOL     OW31516   2.820   9.304   2.534
 7061SOL    HW131517   2.770   9.354   2.604
 7061SOL    HW231518   2.917   9.330   2.536
 7062SOL     OW31519   7.983   9.766   0.732
 7062SOL    HW131520   8.050   9.761   0.807
 7062SOL    HW231521   7.925   9.685   0.734
 7063SOL     OW31522   9.112   5.258   1.603
 7063SOL    HW131523   9.038   5.302   1.552
 7063SOL    HW231524   9.092   5.263   1.701
 7064SOL     OW31525   0.162   6.720   1.204
 7064SOL    HW131526   0.108   6.752   1.126
 7064SOL    HW231527   0.196   6.798   1.256
 7065SOL     OW31528   9.443   0.708   0.238
 7065SOL    HW131529   9.491   0.651   0.304
 7065SOL    HW231530   9.500   0.722   0.157
 7066SOL     OW31531   9.265   1.931   0.224
 7066SOL    HW131532   9.168   1.949   0.210
 7066SOL    HW231533   9.314   2.018   0.231
 7067SOL     OW31534   2.185   5.937   0.776
 7067SOL    HW131535   2.257   5.986   0.824
 7067SOL    HW231536   2.105   5.997   0.764
 7068SOL     OW31537   3.296   9.520   0.402
 7068SOL    HW131538   3.256   9.544   0.491
 7068SOL    HW231539   3.224   9.483   0.342
 7069SOL     OW31540   7.966   1.349   1.772
 7069SOL    HW131541   7.893   1.300   1.818
 7069SOL    HW231542   7.986   1.434   1.821
 7070SOL     OW31543   3.951   3.096   1.341
 7070SOL    HW131544   3.980   3.178   1.291
 7070SOL    HW231545   4.017   3.022   1.325
 7071SOL     OW31546   8.632   5.699   2.823
 7071SOL    HW131547   8.711   5.749   2.787
 7071SOL    HW231548   8.570   5.763   2.868
 7072SOL     OW31549   2.647   1.229   2.343
 7072SOL    HW131550   2.563   1.283   2.352
 7072SOL    HW231551   2.726   1.286   2.363
 7073SOL     OW31552   9.353   5.945   2.857
 7073SOL    HW131553   9.399   5.889   2.927
 7073SOL    HW231554   9.281   5.998   2.900
 7074SOL     OW31555   7.609   7.681   2.553
 7074SOL    HW131556   7.574   7.588   2.556
 7074SOL    HW231557   7.576   7.726   2.469
 7075SOL     OW31558   1.533   5.377   1.627
 7075SOL    HW131559   1.564   5.470   1.648
 7075SOL    HW231560   1.532   5.322   1.710
 7076SOL     OW31561   3.570   7.547   1.674
 7076SOL    HW131562   3.499   7.486   1.711
 7076SOL    HW231563   3.655   7.534   1.725
 7077SOL     OW31564   9.217   4.693   2.344
 7077SOL    HW131565   9.181   4.767   2.400
 7077SOL    HW231566   9.202   4.713   2.248
 7078SOL     OW31567   9.606   6.114   2.283
 7078SOL    HW131568   9.548   6.072   2.352
 7078SOL    HW231569   9.678   6.168   2.327
 7079SOL     OW31570   1.065   2.778   2.659
 7079SOL    HW131571   1.130   2.712   2.697
 7079SOL    HW231572   1.080   2.786   2.560
 7080SOL     OW31573   1.368   6.159   2.059
 7080SOL    HW131574   1.412   6.102   1.989
 7080SOL    HW231575   1.308   6.102   2.115
 7081SOL     OW31576   8.282   9.387   1.425
 7081SOL    HW131577   8.228   9.469   1.405
 7081SOL    HW231578   8.228   9.306   1.401
 7082SOL     OW31579   4.129   8.204   0.516
 7082SOL    HW131580   4.083   8.290   0.498
 7082SOL    HW231581   4.144   8.154   0.430
 7083SOL     OW31582   4.052   4.775   1.984
 7083SOL    HW131583   4.103   4.794   2.067
 7083SOL    HW231584   4.046   4.859   1.929
 7084SOL     OW31585   0.024   5.622   1.059
 7084SOL    HW131586   9.943   5.564   1.073
 7084SOL    HW231587   0.107   5.569   1.077
 7085SOL     OW31588   8.885   3.218   1.060
 7085SOL    HW131589   8.831   3.277   1.120
 7085SOL    HW231590   8.970   3.264   1.036
 7086SOL     OW31591   8.369   3.965   0.403
 7086SOL    HW131592   8.290   4.024   0.386
 7086SOL    HW231593   8.339   3.869   0.403
 7087SOL     OW31594   6.651   9.444   2.589
 7087SOL    HW131595   6.667   9.486   2.678
 7087SOL    HW231596   6.649   9.345   2.599
 7088SOL     OW31597   7.591   8.023   2.172
 7088SOL    HW131598   7.665   8.002   2.237
 7088SOL    HW231599   7.559   8.116   2.187
 7089SOL     OW31600   4.486   8.614   1.981
 7089SOL    HW131601   4.424   8.693   1.978
 7089SOL    HW231602   4.559   8.632   2.046
 7090SOL     OW31603   3.198   7.487   2.582
 7090SOL    HW131604   3.261   7.565   2.581
 7090SOL    HW231605   3.116   7.510   2.633
 7091SOL     OW31606   3.084   6.025   1.041
 7091SOL    HW131607   3.110   6.047   1.135
 7091SOL    HW231608   3.059   6.109   0.993
 7092SOL     OW31609   4.167   9.835   0.098
 7092SOL    HW131610   4.070   9.810   0.096
 7092SOL    HW231611   4.222   9.752   0.109
 7093SOL     OW31612   1.694   6.268   2.074
 7093SOL    HW131613   1.653   6.248   2.163
 7093SOL    HW231614   1.635   6.332   2.024
 7094SOL     OW31615   0.138   4.558   1.547
 7094SOL    HW131616   0.086   4.610   1.615
 7094SOL    HW231617   0.140   4.609   1.461
 7095SOL     OW31618   3.577   8.934   0.269
 7095SOL    HW131619   3.496   8.882   0.242
 7095SOL    HW231620   3.565   9.030   0.244
 7096SOL     OW31621   4.619   9.900   0.683
 7096SOL    HW131622   4.520   9.899   0.702
 7096SOL    HW231623   4.665   9.835   0.744
 7097SOL     OW31624   9.117   5.012   1.348
 7097SOL    HW131625   9.097   4.945   1.420
 7097SOL    HW231626   9.211   4.999   1.317
 7098SOL     OW31627   4.545   4.591   2.076
 7098SOL    HW131628   4.490   4.508   2.078
 7098SOL    HW231629   4.546   4.634   2.166
 7099SOL     OW31630   7.931   9.584   2.272
 7099SOL    HW131631   7.871   9.507   2.250
 7099SOL    HW231632   7.912   9.616   2.365
 7100SOL     OW31633   3.636   1.272   0.691
 7100SOL    HW131634   3.660   1.370   0.694
 7100SOL    HW231635   3.550   1.258   0.740
 7101SOL     OW31636   8.883   2.261   2.232
 7101SOL    HW131637   8.825   2.181   2.245
 7101SOL    HW231638   8.931   2.253   2.144
 7102SOL     OW31639   1.215   6.007   2.217
 7102SOL    HW131640   1.123   5.970   2.232
 7102SOL    HW231641   1.282   5.933   2.227
 7103SOL     OW31642   9.950   7.511   1.340
 7103SOL    HW131643   9.916   7.535   1.249
 7103SOL    HW231644   9.925   7.417   1.363
 7104SOL     OW31645   1.224   7.613   3.034
 7104SOL    HW131646   1.181   7.562   2.960
 7104SOL    HW231647   1.316   7.640   3.005
 7105SOL     OW31648   3.456   1.709   2.544
 7105SOL    HW131649   3.459   1.712   2.444
 7105SOL    HW231650   3.404   1.629   2.573
 7106SOL     OW31651   9.856   5.547   2.303
 7106SOL    HW131652   9.794   5.556   2.225
 7106SOL    HW231653   9.937   5.496   2.275
 7107SOL     OW31654   2.234   0.699   2.906
 7107SOL    HW131655   2.276   0.789   2.898
 7107SOL    HW231656   2.135   0.706   2.891
 7108SOL     OW31657   7.893   8.568   2.250
 7108SOL    HW131658   7.962   8.610   2.309
 7108SOL    HW231659   7.805   8.566   2.298
 7109SOL     OW31660   9.783   8.193   0.097
 7109SOL    HW131661   9.721   8.271   0.099
 7109SOL    HW231662   9.836   8.194   0.012
 7110SOL     OW31663   1.076   1.881   1.157
 7110SOL    HW131664   1.035   1.920   1.240
 7110SOL    HW231665   1.034   1.923   1.076
 7111SOL     OW31666   8.031   0.793   2.830
 7111SOL    HW131667   8.057   0.890   2.829
 7111SOL    HW231668   8.100   0.740   2.781
 7112SOL     OW31669   0.834   5.090   1.062
 7112SOL    HW131670   0.823   5.176   1.110
 7112SOL    HW231671   0.744   5.055   1.035
 7113SOL     OW31672   4.225   7.918   0.871
 7113SOL    HW131673   4.272   7.995   0.912
 7113SOL    HW231674   4.276   7.886   0.790
 7114SOL     OW31675   3.227   0.507   0.331
 7114SOL    HW131676   3.310   0.485   0.279
 7114SOL    HW231677   3.155   0.535   0.269
 7115SOL     OW31678   8.000   2.565   1.203
 7115SOL    HW131679   7.915   2.535   1.161
 7115SOL    HW231680   8.078   2.526   1.153
 7116SOL     OW31681   3.589   0.859   2.484
 7116SOL    HW131682   3.495   0.826   2.491
 7116SOL    HW231683   3.651   0.790   2.522
 7117SOL     OW31684   8.815   2.123   2.807
 7117SOL    HW131685   8.827   2.058   2.732
 7117SOL    HW231686   8.746   2.191   2.782
 7118SOL     OW31687   8.090   1.534   2.922
 7118SOL    HW131688   8.165   1.592   2.890
 7118SOL    HW231689   8.054   1.482   2.844
 7119SOL     OW31690   3.862   7.750   1.024
 7119SOL    HW131691   3.918   7.770   1.105
 7119SOL    HW231692   3.922   7.739   0.945
 7120SOL     OW31693   2.750   2.314   1.581
 7120SOL    HW131694   2.732   2.313   1.680
 7120SOL    HW231695   2.834   2.365   1.563
 7121SOL     OW31696   2.511   4.012   2.503
 7121SOL    HW131697   2.437   4.056   2.453
 7121SOL    HW231698   2.557   3.945   2.443
 7122SOL     OW31699   2.990   2.459   1.544
 7122SOL    HW131700   3.024   2.416   1.460
 7122SOL    HW231701   3.007   2.558   1.540
 7123SOL     OW31702   6.545   0.398   2.595
 7123SOL    HW131703   6.548   0.394   2.495
 7123SOL    HW231704   6.474   0.336   2.629
 7124SOL     OW31705   4.471   8.975   1.252
 7124SOL    HW131706   4.563   9.000   1.281
 7124SOL    HW231707   4.475   8.892   1.196
 7125SOL     OW31708   9.767   7.916   2.231
 7125SOL    HW131709   9.807   7.828   2.259
 7125SOL    HW231710   9.829   7.990   2.255
 7126SOL     OW31711   4.409   9.066   2.159
 7126SOL    HW131712   4.487   9.116   2.123
 7126SOL    HW231713   4.437   9.011   2.238
 7127SOL     OW31714   7.715   6.367   2.799
 7127SOL    HW131715   7.693   6.328   2.889
 7127SOL    HW231716   7.804   6.412   2.804
 7128SOL     OW31717   6.179   7.626   2.971
 7128SOL    HW131718   6.207   7.530   2.968
 7128SOL    HW231719   6.093   7.634   3.022
 7129SOL     OW31720   0.078   2.840   2.098
 7129SOL    HW131721   0.017   2.879   2.028
 7129SOL    HW231722   0.155   2.902   2.113
 7130SOL     OW31723   2.258   8.154   1.605
 7130SOL    HW131724   2.314   8.073   1.624
 7130SOL    HW231725   2.220   8.188   1.691
 7131SOL     OW31726   0.515   9.189   1.716
 7131SOL    HW131727   0.514   9.289   1.704
 7131SOL    HW231728   0.436   9.161   1.769
 7132SOL     OW31729   7.674   1.078   2.628
 7132SOL    HW131730   7.689   1.175   2.645
 7132SOL    HW231731   7.762   1.034   2.608
 7133SOL     OW31732   9.850   3.126   3.072
 7133SOL    HW131733   9.904   3.209   3.088
 7133SOL    HW231734   9.912   3.049   3.058
 7134SOL     OW31735   2.998   0.307   0.134
 7134SOL    HW131736   3.066   0.240   0.165
 7134SOL    HW231737   2.909   0.262   0.124
 7135SOL     OW31738   9.298   0.811   2.754
 7135SOL    HW131739   9.225   0.849   2.697
 7135SOL    HW231740   9.263   0.731   2.803
 7136SOL     OW31741   1.606   2.648   0.695
 7136SOL    HW131742   1.682   2.710   0.677
 7136SOL    HW231743   1.522   2.685   0.657
 7137SOL     OW31744   0.429   9.424   0.475
 7137SOL    HW131745   0.497   9.352   0.462
 7137SOL    HW231746   0.396   9.422   0.569
 7138SOL     OW31747   1.213   3.506   2.400
 7138SOL    HW131748   1.125   3.485   2.358
 7138SOL    HW231749   1.284   3.448   2.360
 7139SOL     OW31750   0.625   6.280   0.477
 7139SOL    HW131751   0.625   6.275   0.577
 7139SOL    HW231752   0.618   6.188   0.439
 7140SOL     OW31753   8.079   0.266   0.151
 7140SOL    HW131754   8.012   0.340   0.142
 7140SOL    HW231755   8.048   0.187   0.098
 7141SOL     OW31756   9.451   4.244   3.112
 7141SOL    HW131757   9.484   4.311   3.046
 7141SOL    HW231758   9.520   4.172   3.124
 7142SOL     OW31759   9.279   9.529   3.005
 7142SOL    HW131760   9.212   9.603   3.001
 7142SOL    HW231761   9.250   9.454   2.945
 7143SOL     OW31762   3.661   0.678   0.780
 7143SOL    HW131763   3.679   0.755   0.718
 7143SOL    HW231764   3.713   0.691   0.864
 7144SOL     OW31765   7.998   6.227   1.818
 7144SOL    HW131766   8.054   6.183   1.888
 7144SOL    HW231767   7.931   6.162   1.783
 7145SOL     OW31768   3.052   8.065   2.104
 7145SOL    HW131769   2.967   8.013   2.112
 7145SOL    HW231770   3.031   8.163   2.112
 7146SOL     OW31771   9.543   4.892   3.063
 7146SOL    HW131772   9.452   4.851   3.069
 7146SOL    HW231773   9.612   4.821   3.080
 7147SOL     OW31774   3.179   7.765   1.542
 7147SOL    HW131775   3.088   7.790   1.509
 7147SOL    HW231776   3.175   7.738   1.638
 7148SOL     OW31777   9.031   7.719   0.787
 7148SOL    HW131778   9.035   7.650   0.859
 7148SOL    HW231779   9.115   7.716   0.732
 7149SOL     OW31780   3.373   3.732   1.557
 7149SOL    HW131781   3.385   3.739   1.458
 7149SOL    HW231782   3.297   3.790   1.586
 7150SOL     OW31783   2.993   8.140   1.832
 7150SOL    HW131784   3.027   8.233   1.820
 7150SOL    HW231785   3.034   8.100   1.914
 7151SOL     OW31786   9.904   2.926   1.903
 7151SOL    HW131787   9.832   2.995   1.905
 7151SOL    HW231788   9.867   2.839   1.872
 7152SOL     OW31789   2.711   2.988   2.274
 7152SOL    HW131790   2.621   3.032   2.280
 7152SOL    HW231791   2.782   3.056   2.288
 7153SOL     OW31792   3.261   7.065   2.724
 7153SOL    HW131793   3.167   7.064   2.689
 7153SOL    HW231794   3.295   7.158   2.725
 7154SOL     OW31795   1.806   9.579   1.390
 7154SOL    HW131796   1.814   9.498   1.332
 7154SOL    HW231797   1.725   9.631   1.363
 7155SOL     OW31798   3.582   3.873   1.659
 7155SOL    HW131799   3.504   3.821   1.623
 7155SOL    HW231800   3.664   3.816   1.659
 7156SOL     OW31801   2.104   3.093   3.071
 7156SOL    HW131802   2.073   3.047   2.988
 7156SOL    HW231803   2.036   3.081   3.143
 7157SOL     OW31804   2.258   3.641   0.838
 7157SOL    HW131805   2.199   3.599   0.769
 7157SOL    HW231806   2.353   3.618   0.820
 7158SOL     OW31807   2.493   1.797   2.591
 7158SOL    HW131808   2.511   1.710   2.636
 7158SOL    HW231809   2.419   1.845   2.638
 7159SOL     OW31810   7.332   9.359   2.800
 7159SOL    HW131811   7.328   9.267   2.840
 7159SOL    HW231812   7.260   9.415   2.839
 7160SOL     OW31813   3.764   9.135   1.585
 7160SOL    HW131814   3.807   9.046   1.572
 7160SOL    HW231815   3.665   9.127   1.568
 7161SOL     OW31816   3.086   8.401   1.820
 7161SOL    HW131817   3.172   8.393   1.768
 7161SOL    HW231818   3.061   8.498   1.827
 7162SOL     OW31819   3.891   9.594   0.675
 7162SOL    HW131820   3.955   9.540   0.731
 7162SOL    HW231821   3.810   9.617   0.730
 7163SOL     OW31822   3.872   2.870   1.728
 7163SOL    HW131823   3.826   2.848   1.642
 7163SOL    HW231824   3.942   2.802   1.747
 7164SOL     OW31825   7.767   9.380   2.203
 7164SOL    HW131826   7.828   9.343   2.134
 7164SOL    HW231827   7.765   9.319   2.283
 7165SOL     OW31828   8.777   8.478   0.184
 7165SOL    HW131829   8.848   8.528   0.234
 7165SOL    HW231830   8.820   8.411   0.123
 7166SOL     OW31831   9.569   6.036   2.720
 7166SOL    HW131832   9.492   5.999   2.772
 7166SOL    HW231833   9.546   6.037   2.623
 7167SOL     OW31834   3.463   2.001   1.142
 7167SOL    HW131835   3.498   1.951   1.063
 7167SOL    HW231836   3.526   2.075   1.165
 7168SOL     OW31837   0.929   6.467   3.012
 7168SOL    HW131838   1.026   6.494   3.006
 7168SOL    HW231839   0.912   6.428   3.103
 7169SOL     OW31840   1.740   9.212   2.150
 7169SOL    HW131841   1.837   9.211   2.176
 7169SOL    HW231842   1.704   9.305   2.159
 7170SOL     OW31843   8.619   4.558   2.795
 7170SOL    HW131844   8.643   4.501   2.873
 7170SOL    HW231845   8.697   4.566   2.734
 7171SOL     OW31846   2.503   4.504   2.017
 7171SOL    HW131847   2.512   4.470   1.924
 7171SOL    HW231848   2.461   4.434   2.075
 7172SOL     OW31849   3.130   3.672   0.358
 7172SOL    HW131850   3.109   3.599   0.292
 7172SOL    HW231851   3.046   3.721   0.381
 7173SOL     OW31852   0.260   2.833   1.133
 7173SOL    HW131853   0.259   2.749   1.187
 7173SOL    HW231854   0.188   2.829   1.064
 7174SOL     OW31855   8.821   9.906   1.350
 7174SOL    HW131856   8.906   9.862   1.322
 7174SOL    HW231857   8.768   9.932   1.270
 7175SOL     OW31858   8.901   3.699   1.056
 7175SOL    HW131859   8.859   3.729   1.142
 7175SOL    HW231860   8.996   3.730   1.052
 7176SOL     OW31861   0.228   3.345   2.630
 7176SOL    HW131862   0.210   3.379   2.722
 7176SOL    HW231863   0.208   3.247   2.626
 7177SOL     OW31864   3.041   7.858   2.485
 7177SOL    HW131865   3.084   7.800   2.415
 7177SOL    HW231866   3.092   7.850   2.571
 7178SOL     OW31867   2.616   5.066   0.009
 7178SOL    HW131868   2.553   5.046   3.974
 7178SOL    HW231869   2.622   4.987   0.070
 7179SOL     OW31870   0.711   4.201   1.683
 7179SOL    HW131871   0.784   4.151   1.729
 7179SOL    HW231872   0.649   4.137   1.640
 7180SOL     OW31873   0.686   3.610   0.966
 7180SOL    HW131874   0.730   3.637   0.880
 7180SOL    HW231875   0.754   3.566   1.025
 7181SOL     OW31876   9.606   8.105   2.787
 7181SOL    HW131877   9.669   8.078   2.859
 7181SOL    HW231878   9.512   8.081   2.814
 7182SOL     OW31879   1.405   6.411   0.954
 7182SOL    HW131880   1.357   6.489   0.995
 7182SOL    HW231881   1.492   6.396   1.002
 7183SOL     OW31882   9.673   4.074   3.099
 7183SOL    HW131883   9.712   4.082   3.007
 7183SOL    HW231884   9.743   4.094   3.166
 7184SOL     OW31885   5.944   8.415   2.263
 7184SOL    HW131886   5.888   8.348   2.214
 7184SOL    HW231887   6.022   8.441   2.207
 7185SOL     OW31888   9.423   3.249   2.627
 7185SOL    HW131889   9.466   3.222   2.540
 7185SOL    HW231890   9.492   3.291   2.686
 7186SOL     OW31891   4.707   0.176   0.435
 7186SOL    HW131892   4.703   0.199   0.532
 7186SOL    HW231893   4.622   0.132   0.407
 7187SOL     OW31894   4.663   0.168   0.717
 7187SOL    HW131895   4.667   0.185   0.816
 7187SOL    HW231896   4.654   0.069   0.701
 7188SOL     OW31897   3.155   9.393   1.035
 7188SOL    HW131898   3.138   9.299   1.007
 7188SOL    HW231899   3.212   9.439   0.967
 7189SOL     OW31900   3.288   1.653   0.449
 7189SOL    HW131901   3.305   1.602   0.534
 7189SOL    HW231902   3.192   1.642   0.423
 7190SOL     OW31903   0.223   9.519   1.357
 7190SOL    HW131904   0.292   9.582   1.391
 7190SOL    HW231905   0.144   9.519   1.419
 7191SOL     OW31906   9.509   4.268   1.405
 7191SOL    HW131907   9.532   4.188   1.462
 7191SOL    HW231908   9.426   4.310   1.440
 7192SOL     OW31909   2.002   2.091   2.913
 7192SOL    HW131910   2.037   2.013   2.964
 7192SOL    HW231911   1.985   2.064   2.818
 7193SOL     OW31912   3.703   3.168   2.344
 7193SOL    HW131913   3.641   3.096   2.376
 7193SOL    HW231914   3.782   3.172   2.405
 7194SOL     OW31915   7.461   2.146   0.622
 7194SOL    HW131916   7.499   2.054   0.634
 7194SOL    HW231917   7.493   2.185   0.536
 7195SOL     OW31918   2.822   0.425   1.696
 7195SOL    HW131919   2.744   0.465   1.744
 7195SOL    HW231920   2.888   0.390   1.762
 7196SOL     OW31921   0.750   2.669   1.838
 7196SOL    HW131922   0.845   2.692   1.816
 7196SOL    HW231923   0.691   2.746   1.816
 7197SOL     OW31924   1.685   5.040   0.869
 7197SOL    HW131925   1.612   5.083   0.921
 7197SOL    HW231926   1.760   5.104   0.856
 7198SOL     OW31927   5.042   7.205   3.001
 7198SOL    HW131928   5.106   7.271   3.040
 7198SOL    HW231929   5.083   7.165   2.919
 7199SOL     OW31930   8.456   5.896   2.905
 7199SOL    HW131931   8.387   5.835   2.867
 7199SOL    HW231932   8.416   5.951   2.979
 7200SOL     OW31933   3.788   8.086   0.068
 7200SOL    HW131934   3.759   8.181   0.057
 7200SOL    HW231935   3.711   8.032   0.102
 7201SOL     OW31936   7.633   6.634   2.758
 7201SOL    HW131937   7.664   6.677   2.843
 7201SOL    HW231938   7.641   6.535   2.765
 7202SOL     OW31939   2.703   0.357   1.269
 7202SOL    HW131940   2.641   0.416   1.218
 7202SOL    HW231941   2.746   0.292   1.206
 7203SOL     OW31942   2.925   3.162   2.286
 7203SOL    HW131943   2.963   3.224   2.218
 7203SOL    HW231944   2.996   3.136   2.352
 7204SOL     OW31945   3.864   2.933   2.955
 7204SOL    HW131946   3.828   3.018   2.916
 7204SOL    HW231947   3.793   2.891   3.013
 7205SOL     OW31948   6.022   9.550   2.131
 7205SOL    HW131949   6.027   9.617   2.057
 7205SOL    HW231950   6.088   9.477   2.113
 7206SOL     OW31951   7.376   0.764   2.620
 7206SOL    HW131952   7.407   0.741   2.527
 7206SOL    HW231953   7.276   0.760   2.624
 7207SOL     OW31954   1.732   4.841   2.159
 7207SOL    HW131955   1.702   4.890   2.077
 7207SOL    HW231956   1.679   4.758   2.170
 7208SOL     OW31957   8.262   1.669   0.320
 7208SOL    HW131958   8.290   1.726   0.398
 7208SOL    HW231959   8.261   1.573   0.348
 7209SOL     OW31960   0.597   5.588   2.110
 7209SOL    HW131961   0.563   5.494   2.110
 7209SOL    HW231962   0.640   5.607   2.022
 7210SOL     OW31963   4.459   8.309   0.218
 7210SOL    HW131964   4.532   8.377   0.215
 7210SOL    HW231965   4.376   8.348   0.177
 7211SOL     OW31966   9.157   6.068   3.004
 7211SOL    HW131967   9.145   6.004   3.080
 7211SOL    HW231968   9.070   6.080   2.956
 7212SOL     OW31969   8.071   2.318   0.833
 7212SOL    HW131970   8.071   2.219   0.849
 7212SOL    HW231971   7.985   2.345   0.791
 7213SOL     OW31972   7.784   8.786   0.845
 7213SOL    HW131973   7.705   8.825   0.893
 7213SOL    HW231974   7.785   8.687   0.858
 7214SOL     OW31975   4.008   1.855   1.827
 7214SOL    HW131976   3.959   1.875   1.743
 7214SOL    HW231977   4.102   1.829   1.806
 7215SOL     OW31978   0.390   2.025   3.082
 7215SOL    HW131979   0.311   1.965   3.068
 7215SOL    HW231980   0.358   2.114   3.114
 7216SOL     OW31981   7.268   8.977   1.775
 7216SOL    HW131982   7.221   8.996   1.861
 7216SOL    HW231983   7.287   9.063   1.728
 7217SOL     OW31984   1.392   6.955   0.054
 7217SOL    HW131985   1.440   6.998   4.018
 7217SOL    HW231986   1.445   6.967   0.138
 7218SOL     OW31987   9.041   7.872   2.570
 7218SOL    HW131988   9.038   7.839   2.664
 7218SOL    HW231989   8.984   7.813   2.513
 7219SOL     OW31990   8.112   2.406   1.403
 7219SOL    HW131991   8.035   2.369   1.454
 7219SOL    HW231992   8.079   2.475   1.338
 7220SOL     OW31993   4.500   9.742   0.375
 7220SOL    HW131994   4.500   9.770   0.280
 7220SOL    HW231995   4.540   9.651   0.383
 7221SOL     OW31996   8.239   5.500   2.963
 7221SOL    HW131997   8.196   5.416   2.993
 7221SOL    HW231998   8.334   5.502   2.994
 7222SOL     OW31999   0.582   1.097   2.315
 7222SOL    HW132000   0.663   1.087   2.374
 7222SOL    HW232001   0.503   1.123   2.371
 7223SOL     OW32002   3.489   4.881   2.796
 7223SOL    HW132003   3.492   4.782   2.783
 7223SOL    HW232004   3.582   4.918   2.792
 7224SOL     OW32005   3.168   3.447   2.850
 7224SOL    HW132006   3.211   3.450   2.760
 7224SOL    HW232007   3.190   3.360   2.894
 7225SOL     OW32008   4.535   5.006   1.997
 7225SOL    HW132009   4.485   4.994   2.083
 7225SOL    HW232010   4.502   4.940   1.930
 7226SOL     OW32011   8.541   9.109   0.048
 7226SOL    HW132012   8.479   9.101   0.125
 7226SOL    HW232013   8.578   9.202   0.044
 7227SOL     OW32014   2.716   3.903   0.251
 7227SOL    HW132015   2.763   3.936   0.169
 7227SOL    HW232016   2.783   3.871   0.317
 7228SOL     OW32017   0.466   4.696   2.432
 7228SOL    HW132018   0.411   4.631   2.484
 7228SOL    HW232019   0.427   4.788   2.442
 7229SOL     OW32020   8.085   1.097   2.207
 7229SOL    HW132021   8.162   1.095   2.271
 7229SOL    HW232022   8.008   1.045   2.245
 7230SOL     OW32023   9.155   2.473   0.989
 7230SOL    HW132024   9.074   2.440   1.039
 7230SOL    HW232025   9.127   2.537   0.918
 7231SOL     OW32026   3.115   1.538   2.751
 7231SOL    HW132027   3.027   1.494   2.735
 7231SOL    HW232028   3.179   1.511   2.680
 7232SOL     OW32029   9.932   4.423   1.235
 7232SOL    HW132030   9.861   4.441   1.166
 7232SOL    HW232031   9.889   4.388   1.318
 7233SOL     OW32032   7.582   7.149   2.448
 7233SOL    HW132033   7.662   7.199   2.414
 7233SOL    HW232034   7.585   7.055   2.414
 7234SOL     OW32035   0.577   3.110   2.861
 7234SOL    HW132036   0.545   3.018   2.882
 7234SOL    HW232037   0.584   3.122   2.762
 7235SOL     OW32038   0.292   7.346   0.922
 7235SOL    HW132039   0.200   7.344   0.962
 7235SOL    HW232040   0.295   7.286   0.842
 7236SOL     OW32041   0.807   3.714   2.802
 7236SOL    HW132042   0.714   3.750   2.811
 7236SOL    HW232043   0.817   3.670   2.713
 7237SOL     OW32044   2.001   5.701   0.176
 7237SOL    HW132045   2.090   5.661   0.154
 7237SOL    HW232046   2.014   5.789   0.222
 7238SOL     OW32047   9.045   0.133   0.183
 7238SOL    HW132048   8.975   0.109   0.251
 7238SOL    HW232049   9.051   0.232   0.175
 7239SOL     OW32050   1.144   7.405   0.112
 7239SOL    HW132051   1.165   7.308   0.127
 7239SOL    HW232052   1.204   7.442   0.042
 7240SOL     OW32053   7.525   9.149   2.342
 7240SOL    HW132054   7.621   9.170   2.364
 7240SOL    HW232055   7.465   9.190   2.410
 7241SOL     OW32056   8.693   3.049   1.892
 7241SOL    HW132057   8.600   3.017   1.874
 7241SOL    HW232058   8.690   3.127   1.954
 7242SOL     OW32059   8.996   5.234   1.252
 7242SOL    HW132060   9.040   5.149   1.282
 7242SOL    HW232061   8.963   5.284   1.331
 7243SOL     OW32062   6.356   0.211   2.700
 7243SOL    HW132063   6.334   0.137   2.636
 7243SOL    HW232064   6.278   0.226   2.761
 7244SOL     OW32065   3.135   8.852   2.204
 7244SOL    HW132066   3.199   8.874   2.278
 7244SOL    HW232067   3.155   8.761   2.169
 7245SOL     OW32068   8.210   1.489   3.172
 7245SOL    HW132069   8.159   1.481   3.086
 7245SOL    HW232070   8.262   1.574   3.171
 7246SOL     OW32071   2.442   1.970   0.747
 7246SOL    HW132072   2.436   1.892   0.810
 7246SOL    HW232073   2.449   2.054   0.800
 7247SOL     OW32074   7.290   8.871   1.106
 7247SOL    HW132075   7.227   8.946   1.127
 7247SOL    HW232076   7.374   8.883   1.159
 7248SOL     OW32077   2.149   6.905   1.286
 7248SOL    HW132078   2.214   6.921   1.211
 7248SOL    HW232079   2.071   6.854   1.252
 7249SOL     OW32080   8.504   6.624   2.580
 7249SOL    HW132081   8.418   6.675   2.592
 7249SOL    HW232082   8.554   6.622   2.667
 7250SOL     OW32083   8.339   3.137   2.466
 7250SOL    HW132084   8.308   3.056   2.516
 7250SOL    HW232085   8.385   3.199   2.529
 7251SOL     OW32086   3.585   0.952   0.130
 7251SOL    HW132087   3.526   0.873   0.114
 7251SOL    HW232088   3.541   1.034   0.093
 7252SOL     OW32089   6.257   8.257   2.667
 7252SOL    HW132090   6.352   8.239   2.642
 7252SOL    HW232091   6.254   8.303   2.756
 7253SOL     OW32092   0.383   6.881   0.762
 7253SOL    HW132093   0.425   6.896   0.852
 7253SOL    HW232094   0.450   6.901   0.690
 7254SOL     OW32095   0.856   3.196   1.606
 7254SOL    HW132096   0.801   3.253   1.545
 7254SOL    HW232097   0.829   3.100   1.597
 7255SOL     OW32098   2.700   3.065   1.592
 7255SOL    HW132099   2.610   3.045   1.630
 7255SOL    HW232100   2.754   2.981   1.589
 7256SOL     OW32101   3.832   1.160   1.691
 7256SOL    HW132102   3.766   1.224   1.732
 7256SOL    HW232103   3.804   1.066   1.711
 7257SOL     OW32104   7.817   0.684   2.341
 7257SOL    HW132105   7.880   0.607   2.334
 7257SOL    HW232106   7.756   0.669   2.419
 7258SOL     OW32107   2.972   0.206   2.524
 7258SOL    HW132108   2.911   0.274   2.564
 7258SOL    HW232109   3.026   0.247   2.451
 7259SOL     OW32110   7.378   9.140   0.221
 7259SOL    HW132111   7.317   9.076   0.175
 7259SOL    HW232112   7.354   9.234   0.195
 7260SOL     OW32113   1.698   5.093   2.907
 7260SOL    HW132114   1.711   5.026   2.834
 7260SOL    HW232115   1.738   5.180   2.881
 7261SOL     OW32116   3.500   3.620   2.211
 7261SOL    HW132117   3.502   3.533   2.260
 7261SOL    HW232118   3.478   3.604   2.114
 7262SOL     OW32119   0.715   4.861   1.402
 7262SOL    HW132120   0.679   4.832   1.313
 7262SOL    HW232121   0.732   4.959   1.400
 7263SOL     OW32122   3.584   7.194   2.254
 7263SOL    HW132123   3.674   7.151   2.260
 7263SOL    HW232124   3.592   7.290   2.281
 7264SOL     OW32125   2.121   5.543   2.719
 7264SOL    HW132126   2.090   5.473   2.654
 7264SOL    HW232127   2.047   5.564   2.783
 7265SOL     OW32128   8.928   4.853   1.037
 7265SOL    HW132129   8.831   4.835   1.016
 7265SOL    HW232130   8.960   4.930   0.982
 7266SOL     OW32131   9.362   8.007   2.897
 7266SOL    HW132132   9.286   7.955   2.858
 7266SOL    HW232133   9.428   7.944   2.938
 7267SOL     OW32134   6.875   7.807   2.987
 7267SOL    HW132135   6.840   7.719   2.955
 7267SOL    HW232136   6.827   7.881   2.939
 7268SOL     OW32137   9.721   0.288   0.794
 7268SOL    HW132138   9.728   0.189   0.782
 7268SOL    HW232139   9.789   0.319   0.860
 7269SOL     OW32140   9.111   1.975   3.105
 7269SOL    HW132141   9.085   2.053   3.049
 7269SOL    HW232142   9.064   1.980   3.193
 7270SOL     OW32143   2.322   7.416   0.089
 7270SOL    HW132144   2.346   7.510   0.064
 7270SOL    HW232145   2.405   7.362   0.100
 7271SOL     OW32146   3.368   9.955   0.313
 7271SOL    HW132147   3.355   9.952   0.412
 7271SOL    HW232148   3.403   9.867   0.281
 7272SOL     OW32149   3.006   5.793   1.754
 7272SOL    HW132150   2.920   5.755   1.719
 7272SOL    HW232151   3.076   5.789   1.682
 7273SOL     OW32152   0.324   7.444   0.577
 7273SOL    HW132153   0.389   7.507   0.620
 7273SOL    HW232154   0.324   7.357   0.626
 7274SOL     OW32155   0.925   6.741   1.796
 7274SOL    HW132156   0.850   6.807   1.789
 7274SOL    HW232157   0.933   6.711   1.891
 7275SOL     OW32158   8.010   1.171   0.478
 7275SOL    HW132159   8.016   1.077   0.512
 7275SOL    HW232160   8.022   1.234   0.555
 7276SOL     OW32161   1.632   1.458   2.792
 7276SOL    HW132162   1.625   1.527   2.720
 7276SOL    HW232163   1.677   1.376   2.756
 7277SOL     OW32164   1.593   9.476   1.950
 7277SOL    HW132165   1.611   9.469   2.048
 7277SOL    HW232166   1.663   9.533   1.907
 7278SOL     OW32167   4.389   4.086   0.499
 7278SOL    HW132168   4.439   4.055   0.418
 7278SOL    HW232169   4.410   4.025   0.576
 7279SOL     OW32170   2.030   4.865   2.716
 7279SOL    HW132171   2.072   4.808   2.646
 7279SOL    HW232172   2.025   4.814   2.802
 7280SOL     OW32173   9.853   9.413   1.837
 7280SOL    HW132174   9.784   9.340   1.838
 7280SOL    HW232175   9.838   9.472   1.758
 7281SOL     OW32176   1.120   5.736   2.548
 7281SOL    HW132177   1.163   5.780   2.469
 7281SOL    HW232178   1.022   5.730   2.534
 7282SOL     OW32179   4.346   2.246   1.359
 7282SOL    HW132180   4.343   2.333   1.310
 7282SOL    HW232181   4.412   2.185   1.316
 7283SOL     OW32182   8.074   6.091   2.282
 7283SOL    HW132183   8.113   6.033   2.353
 7283SOL    HW232184   8.047   6.179   2.322
 7284SOL     OW32185   7.244   9.359   3.124
 7284SOL    HW132186   7.210   9.430   3.062
 7284SOL    HW232187   7.311   9.399   3.186
 7285SOL     OW32188   0.848   0.809   2.142
 7285SOL    HW132189   0.755   0.846   2.146
 7285SOL    HW232190   0.913   0.885   2.141
 7286SOL     OW32191   9.569   9.175   3.064
 7286SOL    HW132192   9.518   9.245   3.113
 7286SOL    HW232193   9.543   9.084   3.098
 7287SOL     OW32194   1.540   9.489   1.064
 7287SOL    HW132195   1.508   9.482   1.158
 7287SOL    HW232196   1.624   9.544   1.060
 7288SOL     OW32197   3.087   6.598   2.161
 7288SOL    HW132198   3.099   6.619   2.064
 7288SOL    HW232199   3.025   6.665   2.202
 7289SOL     OW32200   9.300   7.569   0.415
 7289SOL    HW132201   9.365   7.494   0.433
 7289SOL    HW232202   9.324   7.614   0.330
 7290SOL     OW32203   2.783   2.114   2.477
 7290SOL    HW132204   2.844   2.178   2.431
 7290SOL    HW232205   2.710   2.164   2.523
 7291SOL     OW32206   3.181   6.987   0.592
 7291SOL    HW132207   3.265   7.029   0.626
 7291SOL    HW232208   3.102   7.029   0.636
 7292SOL     OW32209   8.197   4.734   0.465
 7292SOL    HW132210   8.258   4.786   0.525
 7292SOL    HW232211   8.109   4.781   0.457
 7293SOL     OW32212   8.937   7.060   0.474
 7293SOL    HW132213   8.931   7.017   0.384
 7293SOL    HW232214   9.006   7.132   0.471
 7294SOL     OW32215   3.070   0.083   2.746
 7294SOL    HW132216   2.998   0.028   2.789
 7294SOL    HW232217   3.033   0.129   2.665
 7295SOL     OW32218   3.011   5.015   2.283
 7295SOL    HW132219   3.020   5.009   2.184
 7295SOL    HW232220   3.016   4.924   2.323
 7296SOL     OW32221   0.768   6.090   0.868
 7296SOL    HW132222   0.794   6.006   0.820
 7296SOL    HW232223   0.849   6.130   0.910
 7297SOL     OW32224   3.727   9.238   0.957
 7297SOL    HW132225   3.740   9.143   0.987
 7297SOL    HW232226   3.639   9.246   0.911
 7298SOL     OW32227   9.952   8.022   0.356
 7298SOL    HW132228   0.016   7.994   0.284
 7298SOL    HW232229   9.927   8.118   0.342
 7299SOL     OW32230   1.928   2.326   1.884
 7299SOL    HW132231   1.891   2.241   1.923
 7299SOL    HW232232   1.965   2.382   1.958
 7300SOL     OW32233   8.647   9.049   0.636
 7300SOL    HW132234   8.634   9.018   0.542
 7300SOL    HW232235   8.745   9.058   0.654
 7301SOL     OW32236   7.843   2.032   1.049
 7301SOL    HW132237   7.868   2.043   1.146
 7301SOL    HW232238   7.783   2.108   1.022
 7302SOL     OW32239   4.631   8.036   1.763
 7302SOL    HW132240   4.566   7.960   1.773
 7302SOL    HW232241   4.585   8.114   1.721
 7303SOL     OW32242   4.369   2.745   1.242
 7303SOL    HW132243   4.285   2.798   1.253
 7303SOL    HW232244   4.440   2.782   1.302
 7304SOL     OW32245   3.446   9.701   0.260
 7304SOL    HW132246   3.398   9.637   0.320
 7304SOL    HW232247   3.540   9.670   0.248
 7305SOL     OW32248   7.918   5.812   0.852
 7305SOL    HW132249   7.842   5.748   0.839
 7305SOL    HW232250   7.932   5.864   0.767
 7306SOL     OW32251   2.968   7.122   0.682
 7306SOL    HW132252   2.948   7.166   0.769
 7306SOL    HW232253   2.903   7.152   0.613
 7307SOL     OW32254   9.843   3.293   0.710
 7307SOL    HW132255   9.756   3.342   0.702
 7307SOL    HW232256   9.837   3.226   0.785
 7308SOL     OW32257   3.125   0.516   1.356
 7308SOL    HW132258   3.132   0.592   1.292
 7308SOL    HW232259   3.033   0.512   1.395
 7309SOL     OW32260   7.051   9.208   0.715
 7309SOL    HW132261   7.102   9.123   0.703
 7309SOL    HW232262   7.100   9.284   0.672
 7310SOL     OW32263   0.847   5.508   0.784
 7310SOL    HW132264   0.855   5.428   0.724
 7310SOL    HW232265   0.751   5.523   0.807
 7311SOL     OW32266   4.516   9.817   0.114
 7311SOL    HW132267   4.468   9.903   0.098
 7311SOL    HW232268   4.614   9.835   0.124
 7312SOL     OW32269   8.068   0.629   0.559
 7312SOL    HW132270   8.019   0.579   0.487
 7312SOL    HW232271   8.081   0.569   0.638
 7313SOL     OW32272   8.889   8.251   0.062
 7313SOL    HW132273   8.820   8.186   0.032
 7313SOL    HW232274   8.958   8.262   4.031
 7314SOL     OW32275   1.881   9.274   0.867
 7314SOL    HW132276   1.785   9.295   0.844
 7314SOL    HW232277   1.886   9.183   0.908
 7315SOL     OW32278   1.991   9.687   3.065
 7315SOL    HW132279   1.905   9.665   3.111
 7315SOL    HW232280   1.973   9.751   2.990
 7316SOL     OW32281   4.643   9.549   0.632
 7316SOL    HW132282   4.647   9.602   0.717
 7316SOL    HW232283   4.720   9.574   0.573
 7317SOL     OW32284   8.351   8.038   0.140
 7317SOL    HW132285   8.265   8.001   0.104
 7317SOL    HW232286   8.339   8.135   0.161
 7318SOL     OW32287   9.042   1.912   1.389
 7318SOL    HW132288   9.010   1.858   1.311
 7318SOL    HW232289   9.039   1.857   1.472
 7319SOL     OW32290   8.956   1.754   1.181
 7319SOL    HW132291   8.959   1.810   1.098
 7319SOL    HW232292   8.870   1.704   1.185
 7320SOL     OW32293   9.974   4.348   2.495
 7320SOL    HW132294   9.980   4.444   2.523
 7320SOL    HW232295   0.051   4.298   2.534
 7321SOL     OW32296   8.657   5.933   1.987
 7321SOL    HW132297   8.614   5.903   2.072
 7321SOL    HW232298   8.752   5.902   1.985
 7322SOL     OW32299   4.359   0.139   1.386
 7322SOL    HW132300   4.284   0.150   1.451
 7322SOL    HW232301   4.446   0.147   1.434
 7323SOL     OW32302   9.837   9.005   2.540
 7323SOL    HW132303   9.915   9.013   2.479
 7323SOL    HW232304   9.782   9.088   2.535
 7324SOL     OW32305   3.315   9.512   0.840
 7324SOL    HW132306   3.365   9.595   0.865
 7324SOL    HW232307   3.258   9.530   0.760
 7325SOL     OW32308   0.852   7.958   2.018
 7325SOL    HW132309   0.786   7.963   2.093
 7325SOL    HW232310   0.918   7.885   2.037
 7326SOL     OW32311   3.632   2.952   1.841
 7326SOL    HW132312   3.571   2.988   1.771
 7326SOL    HW232313   3.719   2.924   1.798
 7327SOL     OW32314   1.265   1.058   2.304
 7327SOL    HW132315   1.277   1.101   2.393
 7327SOL    HW232316   1.321   1.105   2.236
 7328SOL     OW32317   4.550   1.761   1.740
 7328SOL    HW132318   4.563   1.739   1.837
 7328SOL    HW232319   4.637   1.794   1.702
 7329SOL     OW32320   0.623   7.191   1.596
 7329SOL    HW132321   0.628   7.290   1.583
 7329SOL    HW232322   0.643   7.169   1.691
 7330SOL     OW32323   0.568   6.679   1.134
 7330SOL    HW132324   0.512   6.598   1.150
 7330SOL    HW232325   0.663   6.652   1.121
 7331SOL     OW32326   2.662   8.437   1.360
 7331SOL    HW132327   2.725   8.428   1.437
 7331SOL    HW232328   2.594   8.508   1.380
 7332SOL     OW32329   4.813   1.801   1.656
 7332SOL    HW132330   4.865   1.745   1.591
 7332SOL    HW232331   4.863   1.887   1.672
 7333SOL     OW32332   0.711   3.009   2.254
 7333SOL    HW132333   0.754   2.985   2.342
 7333SOL    HW232334   0.627   2.957   2.243
 7334SOL     OW32335   8.131   8.329   0.738
 7334SOL    HW132336   8.150   8.426   0.722
 7334SOL    HW232337   8.058   8.299   0.677
 7335SOL     OW32338   3.365   8.558   0.124
 7335SOL    HW132339   3.459   8.534   0.150
 7335SOL    HW232340   3.345   8.650   0.156
 7336SOL     OW32341   8.357   2.290   2.321
 7336SOL    HW132342   8.419   2.233   2.268
 7336SOL    HW232343   8.352   2.381   2.280
 7337SOL     OW32344   9.363   2.281   1.338
 7337SOL    HW132345   9.376   2.303   1.242
 7337SOL    HW232346   9.437   2.321   1.392
 7338SOL     OW32347   4.727   9.649   2.360
 7338SOL    HW132348   4.770   9.738   2.377
 7338SOL    HW232349   4.783   9.577   2.401
 7339SOL     OW32350   9.655   1.228   1.832
 7339SOL    HW132351   9.567   1.273   1.846
 7339SOL    HW232352   9.706   1.276   1.761
 7340SOL     OW32353   3.288   4.203   1.907
 7340SOL    HW132354   3.222   4.129   1.914
 7340SOL    HW232355   3.379   4.169   1.931
 7341SOL     OW32356   2.741   1.847   2.468
 7341SOL    HW132357   2.652   1.830   2.508
 7341SOL    HW232358   2.763   1.945   2.477
 7342SOL     OW32359   8.876   7.275   1.871
 7342SOL    HW132360   8.915   7.313   1.955
 7342SOL    HW232361   8.838   7.185   1.890
 7343SOL     OW32362   8.428   5.827   0.269
 7343SOL    HW132363   8.457   5.749   0.213
 7343SOL    HW232364   8.495   5.901   0.260
 7344SOL     OW32365   8.004   1.936   2.471
 7344SOL    HW132366   8.002   2.036   2.479
 7344SOL    HW232367   8.015   1.911   2.375
 7345SOL     OW32368   8.990   8.072   2.870
 7345SOL    HW132369   8.890   8.073   2.863
 7345SOL    HW232370   9.024   7.983   2.842
 7346SOL     OW32371   1.362   5.317   2.960
 7346SOL    HW132372   1.418   5.400   2.963
 7346SOL    HW232373   1.345   5.292   2.865
 7347SOL     OW32374   9.721   5.889   1.656
 7347SOL    HW132375   9.692   5.823   1.726
 7347SOL    HW232376   9.688   5.980   1.681
 7348SOL     OW32377   3.419   8.643   1.676
 7348SOL    HW132378   3.515   8.654   1.704
 7348SOL    HW232379   3.391   8.548   1.690
 7349SOL     OW32380   8.406   3.747   2.394
 7349SOL    HW132381   8.447   3.674   2.448
 7349SOL    HW232382   8.383   3.824   2.453
 7350SOL     OW32383   0.555   4.739   2.844
 7350SOL    HW132384   0.580   4.836   2.850
 7350SOL    HW232385   0.638   4.685   2.829
 7351SOL     OW32386   3.773   3.625   2.237
 7351SOL    HW132387   3.811   3.699   2.182
 7351SOL    HW232388   3.673   3.627   2.232
 7352SOL     OW32389   1.567   7.820   1.530
 7352SOL    HW132390   1.533   7.909   1.562
 7352SOL    HW232391   1.655   7.801   1.575
 7353SOL     OW32392   3.801   6.281   2.552
 7353SOL    HW132393   3.793   6.372   2.593
 7353SOL    HW232394   3.780   6.286   2.454
 7354SOL     OW32395   3.598   7.642   0.123
 7354SOL    HW132396   3.598   7.736   0.155
 7354SOL    HW232397   3.516   7.595   0.156
 7355SOL     OW32398   0.227   2.999   1.549
 7355SOL    HW132399   0.258   2.904   1.537
 7355SOL    HW232400   0.306   3.060   1.546
 7356SOL     OW32401   2.030   0.082   1.985
 7356SOL    HW132402   2.127   0.071   2.007
 7356SOL    HW232403   2.001   0.175   2.009
 7357SOL     OW32404   2.786   1.684   1.799
 7357SOL    HW132405   2.737   1.602   1.829
 7357SOL    HW232406   2.721   1.758   1.783
 7358SOL     OW32407   9.174   0.567   2.443
 7358SOL    HW132408   9.177   0.663   2.414
 7358SOL    HW232409   9.267   0.531   2.453
 7359SOL     OW32410   3.871   2.230   1.297
 7359SOL    HW132411   3.903   2.182   1.215
 7359SOL    HW232412   3.772   2.237   1.295
 7360SOL     OW32413   8.941   2.341   0.553
 7360SOL    HW132414   9.024   2.388   0.585
 7360SOL    HW232415   8.882   2.321   0.632
 7361SOL     OW32416   8.896   9.109   1.510
 7361SOL    HW132417   8.944   9.162   1.440
 7361SOL    HW232418   8.822   9.056   1.468
 7362SOL     OW32419   0.717   7.894   1.341
 7362SOL    HW132420   0.683   7.801   1.324
 7362SOL    HW232421   0.752   7.932   1.255
 7363SOL     OW32422   1.994   1.314   1.794
 7363SOL    HW132423   2.048   1.397   1.776
 7363SOL    HW232424   1.974   1.268   1.708
 7364SOL     OW32425   0.473   1.136   0.376
 7364SOL    HW132426   0.553   1.196   0.369
 7364SOL    HW232427   0.501   1.041   0.364
 7365SOL     OW32428   2.546   1.549   2.686
 7365SOL    HW132429   2.480   1.473   2.692
 7365SOL    HW232430   2.639   1.512   2.688
 7366SOL     OW32431   8.542   9.348   1.341
 7366SOL    HW132432   8.569   9.256   1.310
 7366SOL    HW232433   8.447   9.347   1.371
 7367SOL     OW32434   3.732   3.327   0.379
 7367SOL    HW132435   3.786   3.411   0.388
 7367SOL    HW232436   3.792   3.252   0.352
 7368SOL     OW32437   8.391   5.466   1.984
 7368SOL    HW132438   8.334   5.492   1.906
 7368SOL    HW232439   8.487   5.466   1.958
 7369SOL     OW32440   9.801   3.116   0.908
 7369SOL    HW132441   9.770   3.139   1.000
 7369SOL    HW232442   9.754   3.033   0.877
 7370SOL     OW32443   2.527   4.802   0.643
 7370SOL    HW132444   2.558   4.744   0.719
 7370SOL    HW232445   2.607   4.835   0.592
 7371SOL     OW32446   8.729   1.590   1.184
 7371SOL    HW132447   8.776   1.515   1.139
 7371SOL    HW232448   8.675   1.555   1.261
 7372SOL     OW32449   3.787   1.745   1.955
 7372SOL    HW132450   3.869   1.786   1.914
 7372SOL    HW232451   3.705   1.786   1.916
 7373SOL     OW32452   2.062   2.787   0.393
 7373SOL    HW132453   2.064   2.693   0.360
 7373SOL    HW232454   1.988   2.837   0.347
 7374SOL     OW32455   9.298   1.784   2.174
 7374SOL    HW132456   9.248   1.746   2.096
 7374SOL    HW232457   9.274   1.732   2.256
 7375SOL     OW32458   2.425   1.755   0.905
 7375SOL    HW132459   2.479   1.723   0.983
 7375SOL    HW232460   2.399   1.678   0.848
 7376SOL     OW32461   3.118   0.621   0.896
 7376SOL    HW132462   3.116   0.669   0.983
 7376SOL    HW232463   3.206   0.636   0.851
 7377SOL     OW32464   1.310   3.565   2.091
 7377SOL    HW132465   1.328   3.477   2.134
 7377SOL    HW232466   1.220   3.564   2.047
 7378SOL     OW32467   4.425   0.588   1.520
 7378SOL    HW132468   4.515   0.629   1.532
 7378SOL    HW232469   4.418   0.505   1.575
 7379SOL     OW32470   1.765   0.316   1.671
 7379SOL    HW132471   1.782   0.403   1.624
 7379SOL    HW232472   1.841   0.253   1.653
 7380SOL     OW32473   9.381   3.217   1.345
 7380SOL    HW132474   9.358   3.120   1.336
 7380SOL    HW232475   9.392   3.256   1.253
 7381SOL     OW32476   1.020   1.413   0.765
 7381SOL    HW132477   0.941   1.368   0.722
 7381SOL    HW232478   1.003   1.422   0.863
 7382SOL     OW32479   4.258   3.360   2.687
 7382SOL    HW132480   4.163   3.389   2.679
 7382SOL    HW232481   4.266   3.264   2.659
 7383SOL     OW32482   3.295   4.212   1.630
 7383SOL    HW132483   3.292   4.213   1.730
 7383SOL    HW232484   3.272   4.121   1.597
 7384SOL     OW32485   9.676   8.751   1.036
 7384SOL    HW132486   9.616   8.758   0.956
 7384SOL    HW232487   9.727   8.666   1.033
 7385SOL     OW32488   2.161   8.618   1.385
 7385SOL    HW132489   2.164   8.714   1.413
 7385SOL    HW232490   2.177   8.612   1.287
 7386SOL     OW32491   8.288   8.739   0.873
 7386SOL    HW132492   8.219   8.810   0.887
 7386SOL    HW232493   8.372   8.780   0.838
 7387SOL     OW32494   2.850   9.094   1.107
 7387SOL    HW132495   2.893   9.094   1.197
 7387SOL    HW232496   2.792   9.013   1.098
 7388SOL     OW32497   2.215   3.898   2.671
 7388SOL    HW132498   2.225   3.828   2.601
 7388SOL    HW232499   2.305   3.921   2.709
 7389SOL     OW32500   5.198   8.310   1.722
 7389SOL    HW132501   5.152   8.348   1.642
 7389SOL    HW232502   5.142   8.237   1.761
 7390SOL     OW32503   0.393   1.462   2.617
 7390SOL    HW132504   0.437   1.389   2.670
 7390SOL    HW232505   0.422   1.454   2.521
 7391SOL     OW32506   0.139   2.304   2.786
 7391SOL    HW132507   0.128   2.206   2.802
 7391SOL    HW232508   0.081   2.355   2.849
 7392SOL     OW32509   1.190   7.095   2.636
 7392SOL    HW132510   1.278   7.117   2.595
 7392SOL    HW232511   1.174   6.997   2.630
 7393SOL     OW32512   3.619   0.189   0.609
 7393SOL    HW132513   3.520   0.187   0.600
 7393SOL    HW232514   3.649   0.282   0.631
 7394SOL     OW32515   3.634   7.949   1.371
 7394SOL    HW132516   3.545   7.951   1.416
 7394SOL    HW232517   3.631   8.006   1.289
 7395SOL     OW32518   2.180   2.706   1.275
 7395SOL    HW132519   2.105   2.770   1.288
 7395SOL    HW232520   2.218   2.679   1.363
 7396SOL     OW32521   1.671   6.507   2.654
 7396SOL    HW132522   1.744   6.467   2.710
 7396SOL    HW232523   1.680   6.475   2.560
 7397SOL     OW32524   9.347   6.775   2.360
 7397SOL    HW132525   9.301   6.727   2.435
 7397SOL    HW232526   9.409   6.712   2.314
 7398SOL     OW32527   3.804   8.942   1.864
 7398SOL    HW132528   3.734   9.013   1.878
 7398SOL    HW232529   3.891   8.986   1.841
 7399SOL     OW32530   9.570   3.390   0.724
 7399SOL    HW132531   9.521   3.382   0.637
 7399SOL    HW232532   9.511   3.359   0.799
 7400SOL     OW32533   0.747   7.683   2.205
 7400SOL    HW132534   0.735   7.781   2.223
 7400SOL    HW232535   0.704   7.661   2.118
 7401SOL     OW32536   1.701   3.896   2.879
 7401SOL    HW132537   1.757   3.819   2.848
 7401SOL    HW232538   1.619   3.903   2.823
 7402SOL     OW32539   4.020   3.881   3.002
 7402SOL    HW132540   4.023   3.781   3.014
 7402SOL    HW232541   4.066   3.925   3.079
 7403SOL     OW32542   6.284   8.393   1.919
 7403SOL    HW132543   6.382   8.411   1.927
 7403SOL    HW232544   6.236   8.436   1.995
 7404SOL     OW32545   9.749   4.499   1.047
 7404SOL    HW132546   9.734   4.594   1.071
 7404SOL    HW232547   9.789   4.493   0.956
 7405SOL     OW32548   0.397   1.787   1.620
 7405SOL    HW132549   0.468   1.717   1.616
 7405SOL    HW232550   0.307   1.745   1.608
 7406SOL     OW32551   2.919   6.673   0.568
 7406SOL    HW132552   2.947   6.723   0.650
 7406SOL    HW232553   2.960   6.582   0.568
 7407SOL     OW32554   4.615   8.910   3.032
 7407SOL    HW132555   4.712   8.920   3.011
 7407SOL    HW232556   4.562   8.974   2.976
 7408SOL     OW32557   3.654   8.118   1.148
 7408SOL    HW132558   3.718   8.102   1.073
 7408SOL    HW232559   3.574   8.167   1.113
 7409SOL     OW32560   2.717   1.221   0.733
 7409SOL    HW132561   2.703   1.157   0.809
 7409SOL    HW232562   2.650   1.295   0.740
 7410SOL     OW32563   5.295   3.270   0.748
 7410SOL    HW132564   5.232   3.331   0.796
 7410SOL    HW232565   5.267   3.175   0.762
 7411SOL     OW32566   1.898   0.570   1.899
 7411SOL    HW132567   1.824   0.636   1.890
 7411SOL    HW232568   1.972   0.594   1.836
 7412SOL     OW32569   2.409   6.106   2.167
 7412SOL    HW132570   2.447   6.015   2.179
 7412SOL    HW232571   2.456   6.171   2.227
 7413SOL     OW32572   2.874   1.388   2.353
 7413SOL    HW132573   2.865   1.403   2.255
 7413SOL    HW232574   2.887   1.476   2.399
 7414SOL     OW32575   2.164   4.516   0.623
 7414SOL    HW132576   2.209   4.482   0.706
 7414SOL    HW232577   2.098   4.588   0.648
 7415SOL     OW32578   0.569   1.576   1.599
 7415SOL    HW132579   0.638   1.589   1.528
 7415SOL    HW232580   0.559   1.478   1.617
 7416SOL     OW32581   5.462   0.145   3.096
 7416SOL    HW132582   5.470   0.241   3.072
 7416SOL    HW232583   5.545   0.115   3.142
 7417SOL     OW32584   3.811   5.646   2.104
 7417SOL    HW132585   3.725   5.696   2.098
 7417SOL    HW232586   3.867   5.685   2.177
 7418SOL     OW32587   0.869   0.715   1.483
 7418SOL    HW132588   0.947   0.681   1.431
 7418SOL    HW232589   0.785   0.677   1.446
 7419SOL     OW32590   3.591   3.850   0.901
 7419SOL    HW132591   3.645   3.792   0.841
 7419SOL    HW232592   3.597   3.945   0.871
 7420SOL     OW32593   9.134   0.879   1.866
 7420SOL    HW132594   9.143   0.892   1.767
 7420SOL    HW232595   9.225   0.873   1.907
 7421SOL     OW32596   4.711   2.551   0.800
 7421SOL    HW132597   4.612   2.559   0.815
 7421SOL    HW232598   4.728   2.480   0.731
 7422SOL     OW32599   3.615   7.909   0.214
 7422SOL    HW132600   3.687   7.889   0.281
 7422SOL    HW232601   3.543   7.964   0.258
 7423SOL     OW32602   8.753   4.297   1.220
 7423SOL    HW132603   8.846   4.308   1.184
 7423SOL    HW232604   8.740   4.359   1.298
 7424SOL     OW32605   9.868   7.578   0.220
 7424SOL    HW132606   9.936   7.631   0.270
 7424SOL    HW232607   9.910   7.538   0.138
 7425SOL     OW32608   1.100   5.412   2.973
 7425SOL    HW132609   1.126   5.508   2.974
 7425SOL    HW232610   1.182   5.355   2.982
 7426SOL     OW32611   0.295   9.117   1.880
 7426SOL    HW132612   0.228   9.190   1.892
 7426SOL    HW232613   0.248   9.029   1.869
 7427SOL     OW32614   8.843   9.598   1.192
 7427SOL    HW132615   8.773   9.636   1.132
 7427SOL    HW232616   8.912   9.668   1.212
 7428SOL     OW32617   8.781   6.179   3.128
 7428SOL    HW132618   8.772   6.113   3.202
 7428SOL    HW232619   8.828   6.136   3.050
 7429SOL     OW32620   2.707   0.691   1.298
 7429SOL    HW132621   2.757   0.628   1.357
 7429SOL    HW232622   2.625   0.646   1.263
 7430SOL     OW32623   9.468   3.728   0.166
 7430SOL    HW132624   9.427   3.759   0.080
 7430SOL    HW232625   9.519   3.643   0.150
 7431SOL     OW32626   3.540   2.673   3.063
 7431SOL    HW132627   3.467   2.612   3.094
 7431SOL    HW232628   3.609   2.621   3.013
 7432SOL     OW32629   1.022   7.185   1.340
 7432SOL    HW132630   1.044   7.112   1.274
 7432SOL    HW232631   1.007   7.145   1.430
 7433SOL     OW32632   0.432   3.878   0.219
 7433SOL    HW132633   0.449   3.859   0.122
 7433SOL    HW232634   0.431   3.792   0.270
 7434SOL     OW32635   9.813   1.312   0.253
 7434SOL    HW132636   9.756   1.392   0.233
 7434SOL    HW232637   9.754   1.232   0.266
 7435SOL     OW32638   9.939   2.240   1.314
 7435SOL    HW132639   9.874   2.235   1.238
 7435SOL    HW232640   9.903   2.188   1.392
 7436SOL     OW32641   9.412   7.704   2.093
 7436SOL    HW132642   9.356   7.686   2.011
 7436SOL    HW232643   9.363   7.767   2.153
 7437SOL     OW32644   4.282   6.868   2.821
 7437SOL    HW132645   4.342   6.928   2.873
 7437SOL    HW232646   4.210   6.922   2.778
 7438SOL     OW32647   5.869   8.581   3.030
 7438SOL    HW132648   5.917   8.493   3.029
 7438SOL    HW232649   5.930   8.651   3.066
 7439SOL     OW32650   1.695   7.961   2.166
 7439SOL    HW132651   1.602   7.981   2.196
 7439SOL    HW232652   1.700   7.969   2.066
 7440SOL     OW32653   1.574   6.318   0.154
 7440SOL    HW132654   1.562   6.408   0.112
 7440SOL    HW232655   1.484   6.284   0.183
  10.00000  10.00000   4.04060
